    2    2    1    1
  0.2044104E+02  0.3866779E-09  0.3866779E-09  0.3866779E-09  0.5000000E-15
  1.000000000000000E-004
  CAR 
 unknown system                          
      8    200      8
 
  0.0000000E+00  0.0000000E+00  0.0000000E+00  0.5000000E-02
    1       -6.198230
    2        5.617415
    3        5.617416
    4        5.617416
    5        8.174463
    6        8.174463
    7        8.174463
    8        8.753035
 
  0.2631579E-01  0.0000000E+00  0.2631579E-01  0.5000000E-02
    1       -6.186320
    2        5.532170
    3        5.567106
    4        5.567106
    5        8.144967
    6        8.239466
    7        8.239466
    8        8.836489
 
  0.5263158E-01  0.0000000E+00  0.5263158E-01  0.5000000E-02
    1       -6.150591
    2        5.300480
    3        5.429961
    4        5.429961
    5        8.060304
    6        8.420612
    7        8.420612
    8        9.059101
 
  0.7894737E-01  0.0000000E+00  0.7894737E-01  0.5000000E-02
    1       -6.091094
    2        4.970067
    3        5.235107
    4        5.235107
    5        7.930487
    6        8.688545
    7        8.688545
    8        9.359595
 
  0.1052632E+00  0.0000000E+00  0.1052632E+00  0.5000000E-02
    1       -6.007940
    2        4.580733
    3        5.009235
    4        5.009235
    5        7.768343
    6        9.016217
    7        9.016217
    8        9.664765
 
  0.1315789E+00  0.0000000E+00  0.1315789E+00  0.5000000E-02
    1       -5.901258
    2        4.157342
    3        4.770754
    4        4.770754
    5        7.586520
    6        9.384742
    7        9.384742
    8        9.876593
 
  0.1578947E+00  0.0000000E+00  0.1578947E+00  0.5000000E-02
    1       -5.771202
    2        3.714135
    3        4.531250
    4        4.531250
    5        7.395932
    6        9.781988
    7        9.781988
    8        9.880925
 
  0.1842105E+00  0.0000000E+00  0.1842105E+00  0.5000000E-02
    1       -5.617999
    2        3.259304
    3        4.297956
    4        4.297956
    5        7.205315
    6        9.665352
    7       10.200200
    8       10.200200
 
  0.2105263E+00  0.0000000E+00  0.2105263E+00  0.5000000E-02
    1       -5.441914
    2        2.797718
    3        4.075507
    4        4.075507
    5        7.021391
    6        9.327283
    7       10.634240
    8       10.634240
 
  0.2368421E+00  0.0000000E+00  0.2368421E+00  0.5000000E-02
    1       -5.243236
    2        2.332453
    3        3.866996
    4        3.866996
    5        6.849340
    6        8.946535
    7       11.080622
    8       11.080622
 
  0.2631579E+00  0.0000000E+00  0.2631579E+00  0.5000000E-02
    1       -5.022340
    2        1.865760
    3        3.674559
    4        3.674559
    5        6.693145
    6        8.562642
    7       11.536931
    8       11.536931
 
  0.2894737E+00  0.0000000E+00  0.2894737E+00  0.5000000E-02
    1       -4.779676
    2        1.399389
    3        3.499708
    4        3.499708
    5        6.555898
    6        8.194383
    7       12.001472
    8       12.001473
 
  0.3157895E+00  0.0000000E+00  0.3157895E+00  0.5000000E-02
    1       -4.515695
    2        0.934964
    3        3.343558
    4        3.343558
    5        6.440087
    6        7.851246
    7       12.473116
    8       12.473116
 
  0.3421053E+00  0.0000000E+00  0.3421053E+00  0.5000000E-02
    1       -4.230957
    2        0.474019
    3        3.206933
    4        3.206933
    5        6.347729
    6        7.538256
    7       12.950966
    8       12.950967
 
  0.3684211E+00  0.0000000E+00  0.3684211E+00  0.5000000E-02
    1       -3.926137
    2        0.018165
    3        3.090457
    4        3.090458
    5        6.280538
    6        7.258060
    7       13.434128
    8       13.434128
 
  0.3947368E+00  0.0000000E+00  0.3947368E+00  0.5000000E-02
    1       -3.601933
    2       -0.431002
    3        2.994601
    4        2.994601
    5        6.239986
    6        7.011915
    7       13.921156
    8       13.921156
 
  0.4210526E+00  0.0000000E+00  0.4210526E+00  0.5000000E-02
    1       -3.259158
    2       -0.871900
    3        2.919711
    4        2.919712
    5        6.227391
    6        6.800228
    7       14.408873
    8       14.408874
 
  0.4473684E+00  0.0000000E+00  0.4473684E+00  0.5000000E-02
    1       -2.898731
    2       -1.302909
    3        2.866055
    4        2.866055
    5        6.243957
    6        6.622864
    7       14.888260
    8       14.888260
 
  0.4736842E+00  0.0000000E+00  0.4736842E+00  0.5000000E-02
    1       -2.521717
    2       -1.722493
    3        2.833796
    4        2.833796
    5        6.290790
    6        6.479344
    7       15.325411
    8       15.325412
 
  0.5000000E+00  0.0000000E+00  0.5000000E+00  0.5000000E-02
    1       -2.129217
    2       -2.129217
    3        2.823032
    4        2.823032
    5        6.368935
    6        6.368935
    7       15.555348
    8       15.555362
 
  0.5000000E+00  0.0000000E+00  0.5000000E+00  0.5000000E-02
    1       -2.129217
    2       -2.129217
    3        2.823032
    4        2.823032
    5        6.368935
    6        6.368935
    7       15.555348
    8       15.555348
 
  0.5000000E+00  0.1315789E-01  0.5131579E+00  0.5000000E-02
    1       -2.128251
    2       -2.128251
    3        2.814093
    4        2.814093
    5        6.385425
    6        6.385425
    7       15.529278
    8       15.529279
 
  0.5000000E+00  0.2631579E-01  0.5263158E+00  0.5000000E-02
    1       -2.125375
    2       -2.125375
    3        2.787869
    4        2.787869
    5        6.434319
    6        6.434319
    7       15.445863
    8       15.445863
 
  0.5000000E+00  0.3947368E-01  0.5394737E+00  0.5000000E-02
    1       -2.120648
    2       -2.120648
    3        2.746018
    4        2.746018
    5        6.513991
    6        6.513991
    7       15.295942
    8       15.295942
 
  0.5000000E+00  0.5263158E-01  0.5526316E+00  0.5000000E-02
    1       -2.114173
    2       -2.114173
    3        2.690975
    4        2.690975
    5        6.622071
    6        6.622071
    7       15.080838
    8       15.080839
 
  0.5000000E+00  0.6578947E-01  0.5657895E+00  0.5000000E-02
    1       -2.106086
    2       -2.106086
    3        2.625590
    4        2.625590
    5        6.755801
    6        6.755801
    7       14.815641
    8       14.815641
 
  0.5000000E+00  0.7894737E-01  0.5789474E+00  0.5000000E-02
    1       -2.096569
    2       -2.096569
    3        2.552798
    4        2.552798
    5        6.912349
    6        6.912349
    7       14.518014
    8       14.518015
 
  0.5000000E+00  0.9210526E-01  0.5921053E+00  0.5000000E-02
    1       -2.085833
    2       -2.085833
    3        2.475409
    4        2.475409
    5        7.089031
    6        7.089031
    7       14.201008
    8       14.201008
 
  0.5000000E+00  0.1052632E+00  0.6052632E+00  0.5000000E-02
    1       -2.074138
    2       -2.074138
    3        2.395969
    4        2.395969
    5        7.283417
    6        7.283418
    7       13.872850
    8       13.872851
 
  0.5000000E+00  0.1184211E+00  0.6184211E+00  0.5000000E-02
    1       -2.061762
    2       -2.061762
    3        2.316746
    4        2.316746
    5        7.493395
    6        7.493395
    7       13.538693
    8       13.538693
 
  0.5000000E+00  0.1315789E+00  0.6315789E+00  0.5000000E-02
    1       -2.049030
    2       -2.049030
    3        2.239703
    4        2.239704
    5        7.717120
    6        7.717120
    7       13.201840
    8       13.201840
 
  0.5000000E+00  0.1447368E+00  0.6447368E+00  0.5000000E-02
    1       -2.036284
    2       -2.036284
    3        2.166535
    4        2.166535
    5        7.952984
    6        7.952984
    7       12.864578
    8       12.864578
 
  0.5000000E+00  0.1578947E+00  0.6578947E+00  0.5000000E-02
    1       -2.023872
    2       -2.023872
    3        2.098705
    4        2.098705
    5        8.199544
    6        8.199544
    7       12.528624
    8       12.528624
 
  0.5000000E+00  0.1710526E+00  0.6710526E+00  0.5000000E-02
    1       -2.012169
    2       -2.012169
    3        2.037449
    4        2.037449
    5        8.455414
    6        8.455414
    7       12.195429
    8       12.195429
 
  0.5000000E+00  0.1842105E+00  0.6842105E+00  0.5000000E-02
    1       -2.001529
    2       -2.001529
    3        1.983834
    4        1.983834
    5        8.719116
    6        8.719116
    7       11.866451
    8       11.866451
 
  0.5000000E+00  0.1973684E+00  0.6973684E+00  0.5000000E-02
    1       -1.992283
    2       -1.992283
    3        1.938749
    4        1.938749
    5        8.988745
    6        8.988745
    7       11.543540
    8       11.543540
 
  0.5000000E+00  0.2105263E+00  0.7105263E+00  0.5000000E-02
    1       -1.984739
    2       -1.984739
    3        1.902922
    4        1.902922
    5        9.261098
    6        9.261098
    7       11.229816
    8       11.229816
 
  0.5000000E+00  0.2236842E+00  0.7236842E+00  0.5000000E-02
    1       -1.979155
    2       -1.979155
    3        1.876921
    4        1.876921
    5        9.528897
    6        9.528897
    7       10.932509
    8       10.932509
 
  0.5000000E+00  0.2368421E+00  0.7368421E+00  0.5000000E-02
    1       -1.975724
    2       -1.975724
    3        1.861155
    4        1.861155
    5        9.768548
    6        9.768548
    7       10.675167
    8       10.675167
 
  0.5000000E+00  0.2500000E+00  0.7500000E+00  0.5000000E-02
    1       -1.974567
    2       -1.974567
    3        1.855872
    4        1.855872
    5        9.887829
    6        9.887829
    7       10.549992
    8       10.549992
 
  0.5000000E+00  0.2500000E+00  0.7500000E+00  0.5000000E-02
    1       -1.974567
    2       -1.974567
    3        1.855872
    4        1.855872
    5        9.887829
    6        9.887829
    7       10.549992
    8       10.549992
 
  0.4934211E+00  0.2565789E+00  0.7500000E+00  0.5000000E-02
    1       -2.032654
    2       -1.917446
    3        1.812361
    4        1.904635
    5        9.780250
    6        9.921034
    7       10.566635
    8       10.613781
 
  0.4868421E+00  0.2631579E+00  0.7500000E+00  0.5000000E-02
    1       -2.087664
    2       -1.865356
    3        1.770858
    4        1.961769
    5        9.590828
    6        9.934408
    7       10.672681
    8       10.702061
 
  0.4802632E+00  0.2697368E+00  0.7500000E+00  0.5000000E-02
    1       -2.139584
    2       -1.818262
    3        1.731429
    4        2.026926
    5        9.371434
    6        9.933400
    7       10.809272
    8       10.816580
 
  0.4736842E+00  0.2763158E+00  0.7500000E+00  0.5000000E-02
    1       -2.188404
    2       -1.776051
    3        1.694132
    4        2.099619
    5        9.143217
    6        9.923246
    7       10.930063
    8       10.977549
 
  0.4671053E+00  0.2828947E+00  0.7500000E+00  0.5000000E-02
    1       -2.234114
    2       -1.738539
    3        1.659021
    4        2.179215
    5        8.914217
    6        9.907771
    7       11.060480
    8       11.147970
 
  0.4605263E+00  0.2894737E+00  0.7500000E+00  0.5000000E-02
    1       -2.276707
    2       -1.705492
    3        1.626142
    4        2.264928
    5        8.688164
    6        9.889491
    7       11.197867
    8       11.324625
 
  0.4539474E+00  0.2960526E+00  0.7500000E+00  0.5000000E-02
    1       -2.316178
    2       -1.676618
    3        1.595540
    4        2.355826
    5        8.467249
    6        9.870013
    7       11.340453
    8       11.505926
 
  0.4473684E+00  0.3026316E+00  0.7500000E+00  0.5000000E-02
    1       -2.352510
    2       -1.651601
    3        1.567254
    4        2.450805
    5        8.253091
    6        9.850392
    7       11.487018
    8       11.690984
 
  0.4407895E+00  0.3092105E+00  0.7500000E+00  0.5000000E-02
    1       -2.385707
    2       -1.630113
    3        1.541318
    4        2.548582
    5        8.047131
    6        9.831314
    7       11.636658
    8       11.879210
 
  0.4342105E+00  0.3157895E+00  0.7500000E+00  0.5000000E-02
    1       -2.415758
    2       -1.611829
    3        1.517763
    4        2.647669
    5        7.850834
    6        9.813254
    7       11.788657
    8       12.070182
 
  0.4276316E+00  0.3223684E+00  0.7500000E+00  0.5000000E-02
    1       -2.442659
    2       -1.596424
    3        1.496617
    4        2.746355
    5        7.665797
    6        9.796541
    7       11.942385
    8       12.263541
 
  0.4210526E+00  0.3289474E+00  0.7500000E+00  0.5000000E-02
    1       -2.466405
    2       -1.583598
    3        1.477903
    4        2.842673
    5        7.493826
    6        9.781414
    7       12.097219
    8       12.458935
 
  0.4144737E+00  0.3355263E+00  0.7500000E+00  0.5000000E-02
    1       -2.486993
    2       -1.573066
    3        1.461645
    4        2.934388
    5        7.336985
    6        9.768044
    7       12.252423
    8       12.655960
 
  0.4078947E+00  0.3421053E+00  0.7500000E+00  0.5000000E-02
    1       -2.504419
    2       -1.564585
    3        1.447859
    4        3.018992
    5        7.197605
    6        9.756558
    7       12.407039
    8       12.854082
 
  0.4013158E+00  0.3486842E+00  0.7500000E+00  0.5000000E-02
    1       -2.518679
    2       -1.557942
    3        1.436562
    4        3.093757
    5        7.078251
    6        9.747052
    7       12.559552
    8       13.052458
 
  0.3947368E+00  0.3552632E+00  0.7500000E+00  0.5000000E-02
    1       -2.529774
    2       -1.552965
    3        1.427761
    4        3.155859
    5        6.981607
    6        9.739594
    7       12.707129
    8       13.249461
 
  0.3881579E+00  0.3618421E+00  0.7500000E+00  0.5000000E-02
    1       -2.537705
    2       -1.549512
    3        1.421465
    4        3.202603
    5        6.910268
    6        9.734230
    7       12.843520
    8       13.441618
 
  0.3815789E+00  0.3684211E+00  0.7500000E+00  0.5000000E-02
    1       -2.542464
    2       -1.547479
    3        1.417685
    4        3.231695
    5        6.866453
    6        9.730999
    7       12.952856
    8       13.584357
 
  0.3750000E+00  0.3750000E+00  0.7500000E+00  0.5000000E-02
    1       -2.544049
    2       -1.546807
    3        1.416425
    4        3.241576
    5        6.851669
    6        9.729921
    7       12.999079
    8       13.535185
 
  0.3750000E+00  0.3750000E+00  0.7500000E+00  0.5000000E-02
    1       -2.544049
    2       -1.546807
    3        1.416425
    4        3.241576
    5        6.851669
    6        9.729921
    7       12.999079
    8       13.534989
 
  0.3552632E+00  0.3552632E+00  0.7105263E+00  0.5000000E-02
    1       -2.739213
    2       -1.349164
    3        1.320997
    4        3.378135
    5        7.009265
    6       10.525275
    7       12.528034
    8       13.050736
 
  0.3355263E+00  0.3355263E+00  0.6710526E+00  0.5000000E-02
    1       -2.973085
    2       -1.123121
    3        1.303757
    4        3.530541
    5        7.184822
    6       11.313220
    7       12.074900
    8       12.627283
 
  0.3157895E+00  0.3157895E+00  0.6315789E+00  0.5000000E-02
    1       -3.236409
    2       -0.868909
    3        1.358682
    4        3.696773
    5        7.375411
    6       11.642207
    7       11.797435
    8       12.553116
 
  0.2960526E+00  0.2960526E+00  0.5921053E+00  0.5000000E-02
    1       -3.518304
    2       -0.586789
    3        1.476793
    4        3.874365
    5        7.577034
    6       11.231709
    7       11.553522
    8       12.283062
 
  0.2763158E+00  0.2763158E+00  0.5526316E+00  0.5000000E-02
    1       -3.808519
    2       -0.277108
    3        1.648821
    4        4.060333
    5        7.784177
    6       10.844667
    7       11.184403
    8       11.990676
 
  0.2565789E+00  0.2565789E+00  0.5131579E+00  0.5000000E-02
    1       -4.098471
    2        0.059714
    3        1.866459
    4        4.251107
    5        7.989317
    6       10.482001
    7       10.819106
    8       11.735492
 
  0.2368421E+00  0.2368421E+00  0.4736842E+00  0.5000000E-02
    1       -4.381459
    2        0.423184
    3        2.122656
    4        4.442623
    5        8.182531
    6       10.144440
    7       10.472735
    8       11.524944
 
  0.2171053E+00  0.2171053E+00  0.4342105E+00  0.5000000E-02
    1       -4.652407
    2        0.812702
    3        2.411391
    4        4.630355
    5        8.351620
    6        9.832532
    7       10.148902
    8       11.366520
 
  0.1973684E+00  0.1973684E+00  0.3947368E+00  0.5000000E-02
    1       -4.907455
    2        1.227503
    3        2.727261
    4        4.809580
    5        8.483870
    6        9.546730
    7        9.848712
    8       11.264732
 
  0.1776316E+00  0.1776316E+00  0.3552632E+00  0.5000000E-02
    1       -5.143772
    2        1.666547
    3        3.065021
    4        4.975679
    5        8.569888
    6        9.287360
    7        9.572323
    8       11.214502
 
  0.1578947E+00  0.1578947E+00  0.3157895E+00  0.5000000E-02
    1       -5.359217
    2        2.128410
    3        3.419164
    4        5.124657
    5        8.608047
    6        9.054707
    7        9.319455
    8       11.191182
 
  0.1381579E+00  0.1381579E+00  0.2763158E+00  0.5000000E-02
    1       -5.552128
    2        2.611095
    3        3.783419
    4        5.253609
    5        8.605440
    6        8.849002
    7        9.089529
    8       11.139935
 
  0.1184211E+00  0.1184211E+00  0.2368421E+00  0.5000000E-02
    1       -5.721285
    2        3.111593
    3        4.150177
    4        5.361083
    5        8.574105
    6        8.670411
    7        8.881772
    8       10.976661
 
  0.9868421E-01  0.9868421E-01  0.1973684E+00  0.5000000E-02
    1       -5.865760
    2        3.625111
    3        4.509764
    4        5.447130
    5        8.519089
    6        8.526078
    7        8.695554
    8       10.640518
 
  0.7894737E-01  0.7894737E-01  0.1578947E+00  0.5000000E-02
    1       -5.984805
    2        4.143375
    3        4.849494
    4        5.513063
    5        8.395137
    6        8.469969
    7        8.530881
    8       10.166017
 
  0.5921053E-01  0.5921053E-01  0.1184211E+00  0.5000000E-02
    1       -6.077900
    2        4.650888
    3        5.152635
    4        5.560951
    5        8.298642
    6        8.389498
    7        8.408539
    8        9.644685
 
  0.3947368E-01  0.3947368E-01  0.7894737E-01  0.5000000E-02
    1       -6.144675
    2        5.116330
    3        5.397802
    4        5.593076
    5        8.229668
    6        8.276521
    7        8.334593
    8        9.171977
 
  0.1973684E-01  0.1973684E-01  0.3947368E-01  0.5000000E-02
    1       -6.184831
    2        5.474717
    3        5.560168
    4        5.611450
    5        8.188269
    6        8.201253
    7        8.236295
    8        8.854362
 
  0.0000000E+00  0.0000000E+00  0.0000000E+00  0.5000000E-02
    1       -6.198230
    2        5.617415
    3        5.617416
    4        5.617416
    5        8.174463
    6        8.174463
    7        8.174463
    8        8.753035
 
  0.0000000E+00  0.0000000E+00  0.0000000E+00  0.5000000E-02
    1       -6.198230
    2        5.617415
    3        5.617416
    4        5.617416
    5        8.174463
    6        8.174463
    7        8.174463
    8        8.753035
 
  0.2631579E-01  0.2631579E-01  0.2631579E-01  0.5000000E-02
    1       -6.189299
    2        5.509423
    3        5.602042
    4        5.602042
    5        8.196957
    6        8.196957
    7        8.198958
    8        8.820829
 
  0.5263158E-01  0.5263158E-01  0.5263158E-01  0.5000000E-02
    1       -6.162522
    2        5.224273
    3        5.557931
    4        5.557931
    5        8.219207
    6        8.261782
    7        8.261782
    8        9.040040
 
  0.7894737E-01  0.7894737E-01  0.7894737E-01  0.5000000E-02
    1       -6.117969
    2        4.831742
    3        5.490274
    4        5.490274
    5        8.191076
    6        8.361735
    7        8.361735
    8        9.388848
 
  0.1052632E+00  0.1052632E+00  0.1052632E+00  0.5000000E-02
    1       -6.055791
    2        4.382677
    3        5.405669
    4        5.405669
    5        8.125430
    6        8.486725
    7        8.486725
    8        9.810897
 
  0.1315789E+00  0.1315789E+00  0.1315789E+00  0.5000000E-02
    1       -5.976210
    2        3.905967
    3        5.310558
    4        5.310558
    5        8.037846
    6        8.625220
    7        8.625220
    8       10.267714
 
  0.1578947E+00  0.1578947E+00  0.1578947E+00  0.5000000E-02
    1       -5.879500
    2        3.417779
    3        5.210396
    4        5.210396
    5        7.938410
    6        8.765097
    7        8.765097
    8       10.738994
 
  0.1842105E+00  0.1842105E+00  0.1842105E+00  0.5000000E-02
    1       -5.766041
    2        2.927707
    3        5.109434
    4        5.109434
    5        7.833829
    6        8.894328
    7        8.894328
    8       11.213731
 
  0.2105263E+00  0.2105263E+00  0.2105263E+00  0.5000000E-02
    1       -5.636398
    2        2.441970
    3        5.010857
    4        5.010857
    5        7.728777
    6        9.002104
    7        9.002104
    8       11.684955
 
  0.2368421E+00  0.2368421E+00  0.2368421E+00  0.5000000E-02
    1       -5.491299
    2        1.965037
    3        4.916971
    4        4.916971
    5        7.626653
    6        9.080660
    7        9.080660
    8       12.146116
 
  0.2631579E+00  0.2631579E+00  0.2631579E+00  0.5000000E-02
    1       -5.331720
    2        1.500497
    3        4.829434
    4        4.829434
    5        7.529944
    6        9.126979
    7        9.126979
    8       12.586675
 
  0.2894737E+00  0.2894737E+00  0.2894737E+00  0.5000000E-02
    1       -5.159045
    2        1.051633
    3        4.749420
    4        4.749420
    5        7.440447
    6        9.143268
    7        9.143268
    8       12.984368
 
  0.3157895E+00  0.3157895E+00  0.3157895E+00  0.5000000E-02
    1       -4.975282
    2        0.621769
    3        4.677742
    4        4.677742
    5        7.359460
    6        9.135600
    7        9.135600
    8       13.291843
 
  0.3421053E+00  0.3421053E+00  0.3421053E+00  0.5000000E-02
    1       -4.783315
    2        0.214837
    3        4.614967
    4        4.614967
    5        7.287953
    6        9.111752
    7        9.111752
    8       13.434817
 
  0.3684211E+00  0.3684211E+00  0.3684211E+00  0.5000000E-02
    1       -4.587456
    2       -0.164015
    3        4.561466
    4        4.561466
    5        7.226605
    6        9.079336
    7        9.079336
    8       13.460145
 
  0.3947368E+00  0.3947368E+00  0.3947368E+00  0.5000000E-02
    1       -4.394339
    2       -0.507564
    3        4.517478
    4        4.517478
    5        7.175897
    6        9.044836
    7        9.044836
    8       13.431261
 
  0.4210526E+00  0.4210526E+00  0.4210526E+00  0.5000000E-02
    1       -4.214126
    2       -0.805245
    3        4.483159
    4        4.483159
    5        7.136168
    6        9.013285
    7        9.013285
    8       13.389549
 
  0.4473684E+00  0.4473684E+00  0.4473684E+00  0.5000000E-02
    1       -4.061778
    2       -1.041725
    3        4.458600
    4        4.458600
    5        7.107648
    6        8.988340
    7        8.988340
    8       13.352757
 
  0.4736842E+00  0.4736842E+00  0.4736842E+00  0.5000000E-02
    1       -3.956989
    2       -1.197073
    3        4.443844
    4        4.443844
    5        7.090480
    6        8.972444
    7        8.972444
    8       13.328531
 
  0.5000000E+00  0.5000000E+00  0.5000000E+00  0.5000000E-02
    1       -3.919185
    2       -1.251732
    3        4.438924
    4        4.438924
    5        7.084731
    6        8.966994
    7        8.966994
    8       13.320138
 
  0.5000000E+00  0.5000000E+00  0.5000000E+00  0.5000000E-02
    1       -3.919185
    2       -1.251732
    3        4.438924
    4        4.438924
    5        7.084731
    6        8.966994
    7        8.966994
    8       13.320138
 
  0.5065789E+00  0.4868421E+00  0.5065789E+00  0.5000000E-02
    1       -3.914709
    2       -1.249477
    3        4.395558
    4        4.430662
    5        7.125265
    6        8.959368
    7        8.984336
    8       13.339896
 
  0.5131579E+00  0.4736842E+00  0.5131579E+00  0.5000000E-02
    1       -3.901284
    2       -1.242783
    3        4.273735
    4        4.406310
    5        7.236793
    6        8.939563
    7        9.035927
    8       13.396143
 
  0.5197368E+00  0.4605263E+00  0.5197368E+00  0.5000000E-02
    1       -3.878939
    2       -1.231884
    3        4.092384
    4        4.367079
    5        7.394063
    6        8.917364
    7        9.120519
    8       13.479172
 
  0.5263158E+00  0.4473684E+00  0.5263158E+00  0.5000000E-02
    1       -3.847701
    2       -1.217170
    3        3.871288
    4        4.314798
    5        7.563995
    6        8.911110
    7        9.236250
    8       13.569670
 
  0.5328947E+00  0.4342105E+00  0.5328947E+00  0.5000000E-02
    1       -3.807615
    2       -1.199226
    3        3.626140
    4        4.251659
    5        7.708480
    6        8.948982
    7        9.380851
    8       13.629584
 
  0.5394737E+00  0.4210526E+00  0.5394737E+00  0.5000000E-02
    1       -3.758767
    2       -1.178879
    3        3.368245
    4        4.180005
    5        7.792641
    6        9.060396
    7        9.551897
    8       13.590974
 
  0.5460526E+00  0.4078947E+00  0.5460526E+00  0.5000000E-02
    1       -3.701242
    2       -1.157233
    3        3.105777
    4        4.102130
    5        7.805701
    6        9.253614
    7        9.746967
    8       13.409604
 
  0.5526316E+00  0.3947368E+00  0.5526316E+00  0.5000000E-02
    1       -3.635162
    2       -1.135756
    3        2.844996
    4        4.020170
    5        7.763958
    6        9.511331
    7        9.963763
    8       13.134918
 
  0.5592105E+00  0.3815789E+00  0.5592105E+00  0.5000000E-02
    1       -3.560693
    2       -1.116361
    3        2.591152
    4        3.936037
    5        7.689477
    6        9.811081
    7       10.200141
    8       12.823675
 
  0.5657895E+00  0.3684211E+00  0.5657895E+00  0.5000000E-02
    1       -3.478052
    2       -1.101480
    3        2.349128
    4        3.851399
    5        7.598065
    6       10.136545
    7       10.454118
    8       12.502067
 
  0.5723684E+00  0.3552632E+00  0.5723684E+00  0.5000000E-02
    1       -3.387539
    2       -1.094117
    3        2.123828
    4        3.767681
    5        7.499337
    6       10.476272
    7       10.723813
    8       12.182611
 
  0.5789474E+00  0.3421053E+00  0.5789474E+00  0.5000000E-02
    1       -3.289564
    2       -1.097784
    3        1.920342
    4        3.686092
    5        7.399107
    6       10.816780
    7       11.007359
    8       11.878056
 
  0.5855263E+00  0.3289474E+00  0.5855263E+00  0.5000000E-02
    1       -3.184738
    2       -1.116234
    3        1.743860
    4        3.607642
    5        7.301036
    6       11.105302
    7       11.302724
    8       11.640330
 
  0.5921053E+00  0.3157895E+00  0.5921053E+00  0.5000000E-02
    1       -3.073969
    2       -1.152812
    3        1.599254
    4        3.533174
    5        7.207533
    6       11.085985
    7       11.607400
    8       11.724577
 
  0.5986842E+00  0.3026316E+00  0.5986842E+00  0.5000000E-02
    1       -2.958722
    2       -1.209447
    3        1.490322
    4        3.463398
    5        7.120244
    6       10.834375
    7       11.917845
    8       12.054709
 
  0.6052632E+00  0.2894737E+00  0.6052632E+00  0.5000000E-02
    1       -2.841453
    2       -1.285319
    3        1.418985
    4        3.398900
    5        7.040321
    6       10.552788
    7       12.228231
    8       12.427857
 
  0.6118421E+00  0.2763158E+00  0.6118421E+00  0.5000000E-02
    1       -2.726563
    2       -1.375453
    3        1.384821
    4        3.340171
    5        6.968576
    6       10.271284
    7       12.527786
    8       12.813047
 
  0.6184211E+00  0.2631579E+00  0.6184211E+00  0.5000000E-02
    1       -2.622321
    2       -1.468995
    3        1.385278
    4        3.287619
    5        6.905576
    6        9.996180
    7       12.795821
    8       13.200696
 
  0.6250000E+00  0.2500000E+00  0.6250000E+00  0.5000000E-02
    1       -2.544049
    2       -1.546807
    3        1.416425
    4        3.241576
    5        6.851669
    6        9.729921
    7       12.999079
    8       13.535317
 
  0.6250000E+00  0.2500000E+00  0.6250000E+00  0.5000000E-02
    1       -2.544049
    2       -1.546807
    3        1.416425
    4        3.241576
    5        6.851669
    6        9.729921
    7       12.999079
    8       13.534677
 
  0.6184211E+00  0.2500000E+00  0.6315789E+00  0.5000000E-02
    1       -2.542464
    2       -1.547479
    3        1.417685
    4        3.231695
    5        6.866453
    6        9.730999
    7       12.952856
    8       13.581524
 
  0.6118421E+00  0.2500000E+00  0.6381579E+00  0.5000000E-02
    1       -2.537705
    2       -1.549512
    3        1.421465
    4        3.202603
    5        6.910268
    6        9.734230
    7       12.843520
    8       13.441065
 
  0.6052632E+00  0.2500000E+00  0.6447368E+00  0.5000000E-02
    1       -2.529774
    2       -1.552965
    3        1.427761
    4        3.155859
    5        6.981607
    6        9.739594
    7       12.707129
    8       13.249461
 
  0.5986842E+00  0.2500000E+00  0.6513158E+00  0.5000000E-02
    1       -2.518679
    2       -1.557942
    3        1.436562
    4        3.093757