 vasp.5.3.5 31Mar14 (build Aug  4 2014 13:16:38) complex                        
  
 executed on     GRPO3GRAPHENEAVX date 2015.05.01  08:54:47
 running on    8 total cores
 distrk:  each k-point on    8 cores,    1 groups
 distr:  one band on NCORES_PER_BAND=   1 cores,    8 groups


--------------------------------------------------------------------------------------------------------


 INCAR:
 POTCAR:    PAW_PBE Si 05Jan2001                  

 ----------------------------------------------------------------------------- 
|                                                                             |
|           W    W    AA    RRRRR   N    N  II  N    N   GGGG   !!!           |
|           W    W   A  A   R    R  NN   N  II  NN   N  G    G  !!!           |
|           W    W  A    A  R    R  N N  N  II  N N  N  G       !!!           |
|           W WW W  AAAAAA  RRRRR   N  N N  II  N  N N  G  GGG   !            |
|           WW  WW  A    A  R   R   N   NN  II  N   NN  G    G                |
|           W    W  A    A  R    R  N    N  II  N    N   GGGG   !!!           |
|                                                                             |
|      For optimal performance we recommend to set                            |
|        NCORE= 4 - approx SQRT( number of cores)                             |
|      NCORE specifies how many cores store one orbital (NPAR=cpu/NCORE).     |
|      This setting can  greatly improve the performance of VASP for DFT.     |
|      The default, NPAR=number of cores might be grossly inefficient         |
|      on modern multi-core architectures or massively parallel machines.     |
|      Do your own testing !!!!                                               |
|      Unfortunately you need to use the default for GW and RPA calculations. |
|      (for HF NCORE is supported but not extensively tested yet)             |
|                                                                             |
 ----------------------------------------------------------------------------- 

 POTCAR:    PAW_PBE Si 05Jan2001                  
   VRHFIN =Si: s2p2                                                             
   LEXCH  = PE                                                                  
   EATOM  =   103.0669 eV,    7.5752 Ry                                         
                                                                                
   TITEL  = PAW_PBE Si 05Jan2001                                                
   LULTRA =        F    use ultrasoft PP ?                                      
   IUNSCR =        1    unscreen: 0-lin 1-nonlin 2-no                           
   RPACOR =    1.500    partial core radius                                     
   POMASS =   28.085; ZVAL   =    4.000    mass and valenz                      
   RCORE  =    1.900    outmost cutoff radius                                   
   RWIGS  =    2.480; RWIGS  =    1.312    wigner-seitz radius (au A)           
   ENMAX  =  245.345; ENMIN  =  184.009 eV                                      
   ICORE  =        2    local potential                                         
   LCOR   =        T    correct aug charges                                     
   LPAW   =        T    paw PP                                                  
   EAUG   =  322.069                                                            
   DEXC   =    0.000                                                            
   RMAX   =    1.950    core radius for proj-oper                               
   RAUG   =    1.300    factor for augmentation sphere                          
   RDEP   =    1.993    radius for radial grids                                 
   RDEPT  =    1.837    core radius for aug-charge                              
                                                                                
   Atomic configuration                                                         
    6 entries                                                                   
     n  l   j            E        occ.                                          
     1  0  0.50     -1785.8828   2.0000                                         
     2  0  0.50      -139.4969   2.0000                                         
     2  1  1.50       -95.5546   6.0000                                         
     3  0  0.50       -10.8127   2.0000                                         
     3  1  0.50        -4.0811   2.0000                                         
     3  2  1.50        -4.0817   0.0000                                         
   Description                                                                  
     l       E           TYP  RCUT    TYP  RCUT                                 
     0    -10.8127223     23  1.900                                             
     0     -7.6451159     23  1.900                                             
     1     -4.0811372     23  1.900                                             
     1      2.4879257     23  1.900                                             
     2     -4.0817478      7  1.900                                             
  local pseudopotential read in
  partial core-charges read in
  partial kinetic energy density read in
  atomic valenz-charges read in
  non local Contribution for L=           0  read in
    real space projection operators read in
  non local Contribution for L=           0  read in
    real space projection operators read in
  non local Contribution for L=           1  read in
    real space projection operators read in
  non local Contribution for L=           1  read in
    real space projection operators read in
    PAW grid and wavefunctions read in
 
   number of l-projection  operators is LMAX  =           4
   number of lm-projection operators is LMMAX =           8
 
  PAW_PBE Si 05Jan2001                  :
 energy of atom  1       EATOM= -103.0669
 kinetic energy error for atom=    0.0006 (will be added to EATOM!!)
 
 
 POSCAR: Si                                      
  positions in direct lattice
  velocities in cartesian coordinates
 exchange correlation table for  LEXCH =        8
   RHO(1)=    0.500       N(1)  =     2000
   RHO(2)=  100.500       N(2)  =     4000
 


--------------------------------------------------------------------------------------------------------


 ion  position               nearest neighbor table
   1  0.000  0.000  0.000-   2 2.37   2 2.37   2 2.37   2 2.37
   2  0.250  0.250  0.250-   1 2.37   1 2.37   1 2.37   1 2.37
 
  LATTYP: Found a face centered cubic cell.
 ALAT       =     5.4684506803
  
  Lattice vectors:
  
 A1 = (   2.7342253401,   2.7342253401,   0.0000000000)
 A2 = (   0.0000000000,   2.7342253401,   2.7342253401)
 A3 = (   2.7342253401,   0.0000000000,   2.7342253401)


Analysis of symmetry for initial positions (statically):
=====================================================================
 Subroutine PRICEL returns:
 Original cell was already a primitive cell.
 

 Routine SETGRP: Setting up the symmetry group for a 
 face centered cubic supercell.


 Subroutine GETGRP returns: Found 48 space group operations
 (whereof 24 operations were pure point group operations)
 out of a pool of 48 trial point group operations.


The static configuration has the point symmetry T_d .
 The point group associated with its full space group is O_h .


Analysis of symmetry for dynamics (positions and initial velocities):
=====================================================================
 Subroutine PRICEL returns:
 Original cell was already a primitive cell.
 

 Routine SETGRP: Setting up the symmetry group for a 
 face centered cubic supercell.


 Subroutine GETGRP returns: Found 48 space group operations
 (whereof 24 operations were pure point group operations)
 out of a pool of 48 trial point group operations.


The dynamic configuration has the point symmetry T_d .
 The point group associated with its full space group is O_h .
 
 
 KPOINTS: Si_FCC primitive G-X-W-K-G-L-U-W-L-K U-X
  interpolating k-points between supplied coordinates
  k-points in reciprocal lattice
Space group operators:
 irot       det(A)        alpha          n_x          n_y          n_z        tau_x        tau_y        tau_z
    1     1.000000     0.000001     1.000000     0.000000     0.000000     0.000000     0.000000     0.000000
    2     1.000000   120.000000    -0.577350    -0.577350    -0.577350     0.000000     0.000000     0.000000
    3     1.000000   120.000000     0.577350     0.577350     0.577350     0.000000     0.000000     0.000000
    4    -1.000000    90.000000     0.000000    -1.000000     0.000000     0.000000     0.000000     0.000000
    5    -1.000000   180.000000     0.707107     0.707107     0.000000     0.000000     0.000000     0.000000
    6    -1.000000    90.000000     1.000000     0.000000     0.000000     0.000000     0.000000     0.000000
    7     1.000000   180.000000     0.000000     1.000000     0.000000     0.000000     0.000000     0.000000
    8     1.000000   120.000000     0.577350     0.577350    -0.577350     0.000000     0.000000     0.000000
    9     1.000000   120.000000     0.577350    -0.577350    -0.577350     0.000000     0.000000     0.000000
   10    -1.000000    90.000000     0.000000     1.000000     0.000000     0.000000     0.000000     0.000000
   11    -1.000000    90.000000     0.000000     0.000000    -1.000000     0.000000     0.000000     0.000000
   12    -1.000000   180.000000     0.000000     0.707107     0.707107     0.000000     0.000000     0.000000
   13     1.000000   120.000000    -0.577350     0.577350     0.577350     0.000000     0.000000     0.000000
   14     1.000000   120.000000    -0.577350     0.577350    -0.577350     0.000000     0.000000     0.000000
   15     1.000000   180.000000     0.000000     0.000000     1.000000     0.000000     0.000000     0.000000
   16    -1.000000    90.000000    -1.000000     0.000000     0.000000     0.000000     0.000000     0.000000
   17    -1.000000   180.000000     0.707107     0.000000     0.707107     0.000000     0.000000     0.000000
   18    -1.000000    90.000000     0.000000     0.000000     1.000000     0.000000     0.000000     0.000000
   19     1.000000   120.000000    -0.577350    -0.577350     0.577350     0.000000     0.000000     0.000000
   20     1.000000   180.000000     1.000000     0.000000     0.000000     0.000000     0.000000     0.000000
   21     1.000000   120.000000     0.577350    -0.577350     0.577350     0.000000     0.000000     0.000000
   22    -1.000000   180.000000     0.707107    -0.707107     0.000000     0.000000     0.000000     0.000000
   23    -1.000000   180.000000     0.707107     0.000000    -0.707107     0.000000     0.000000     0.000000
   24    -1.000000   180.000000     0.000000    -0.707107     0.707107     0.000000     0.000000     0.000000
   25    -1.000000     0.000001     1.000000     0.000000     0.000000     0.250000     0.250000     0.250000
   26    -1.000000   120.000000    -0.577350    -0.577350    -0.577350     0.250000     0.250000     0.250000
   27    -1.000000   120.000000     0.577350     0.577350     0.577350     0.250000     0.250000     0.250000
   28     1.000000    90.000000     0.000000    -1.000000     0.000000     0.250000     0.250000     0.250000
   29     1.000000   180.000000     0.707107     0.707107     0.000000     0.250000     0.250000     0.250000
   30     1.000000    90.000000     1.000000     0.000000     0.000000     0.250000     0.250000     0.250000
   31    -1.000000   180.000000     0.000000     1.000000     0.000000     0.250000     0.250000     0.250000
   32    -1.000000   120.000000     0.577350     0.577350    -0.577350     0.250000     0.250000     0.250000
   33    -1.000000   120.000000     0.577350    -0.577350    -0.577350     0.250000     0.250000     0.250000
   34     1.000000    90.000000     0.000000     1.000000     0.000000     0.250000     0.250000     0.250000
   35     1.000000    90.000000     0.000000     0.000000    -1.000000     0.250000     0.250000     0.250000
   36     1.000000   180.000000     0.000000     0.707107     0.707107     0.250000     0.250000     0.250000
   37    -1.000000   120.000000    -0.577350     0.577350     0.577350     0.250000     0.250000     0.250000
   38    -1.000000   120.000000    -0.577350     0.577350    -0.577350     0.250000     0.250000     0.250000
   39    -1.000000   180.000000     0.000000     0.000000     1.000000     0.250000     0.250000     0.250000
   40     1.000000    90.000000    -1.000000     0.000000     0.000000     0.250000     0.250000     0.250000
   41     1.000000   180.000000     0.707107     0.000000     0.707107     0.250000     0.250000     0.250000
   42     1.000000    90.000000     0.000000     0.000000     1.000000     0.250000     0.250000     0.250000
   43    -1.000000   120.000000    -0.577350    -0.577350     0.577350     0.250000     0.250000     0.250000
   44    -1.000000   180.000000     1.000000     0.000000     0.000000     0.250000     0.250000     0.250000
   45    -1.000000   120.000000     0.577350    -0.577350     0.577350     0.250000     0.250000     0.250000
   46     1.000000   180.000000     0.707107    -0.707107     0.000000     0.250000     0.250000     0.250000
   47     1.000000   180.000000     0.707107     0.000000    -0.707107     0.250000     0.250000     0.250000
   48     1.000000   180.000000     0.000000    -0.707107     0.707107     0.250000     0.250000     0.250000


--------------------------------------------------------------------------------------------------------




 Dimension of arrays:
   k-points           NKPTS =    200   k-points in BZ     NKDIM =    200   number of bands    NBANDS=      8
   number of dos      NEDOS =    301   number of ions     NIONS =      2
   non local maximal  LDIM  =      4   non local SUM 2l+1 LMDIM =      8
   total plane-waves  NPLWV =  21952
   max r-space proj   IRMAX =      1   max aug-charges    IRDMAX= 143808
   dimension x,y,z NGX =    28 NGY =   28 NGZ =   28
   dimension x,y,z NGXF=    56 NGYF=   56 NGZF=   56
   support grid    NGXF=   112 NGYF=  112 NGZF=  112
   ions per type =               2
 NGX,Y,Z   is equivalent  to a cutoff of  12.04, 12.04, 12.04 a.u.
 NGXF,Y,Z  is equivalent  to a cutoff of  24.08, 24.08, 24.08 a.u.


 I would recommend the setting:
   dimension x,y,z NGX =    28 NGY =   28 NGZ =   28
 SYSTEM =  unknown system                          
 POSCAR =  Si                                      

 Startparameter for this run:
   NWRITE =      2    write-flag & timer
   PREC   = accura    normal or accurate (medium, high low for compatibility)
   ISTART =      0    job   : 0-new  1-cont  2-samecut
   ICHARG =     11    charge: 1-file 2-atom 10-const
   ISPIN  =      1    spin polarized calculation?
   LNONCOLLINEAR =      F non collinear calculations
   LSORBIT =      F    spin-orbit coupling
   INIWAV =      1    electr: 0-lowe 1-rand  2-diag
   LASPH  =      T    aspherical Exc in radial PAW
   METAGGA=      F    non-selfconsistent MetaGGA calc.

 Electronic Relaxation 1
   ENCUT  =  500.0 eV  36.75 Ry    6.06 a.u.   7.05  7.05  7.05*2*pi/ulx,y,z
   ENINI  =  500.0     initial cutoff
   ENAUG  =  322.1 eV  augmentation charge cutoff
   NELM   =     60;   NELMIN= 10; NELMDL= -5     # of ELM steps 
   EDIFF  = 0.1E-04   stopping-criterion for ELM
   LREAL  =      F    real-space projection
   NLSPLINE    = F    spline interpolate recip. space projectors
   LCOMPAT=      F    compatible to vasp.4.4
   GGA_COMPAT  = T    GGA compatible to vasp.4.4-vasp.4.6
   LMAXPAW     = -100 max onsite density
   LMAXMIX     =    2 max onsite mixed and CHGCAR
   VOSKOWN=      0    Vosko Wilk Nusair interpolation
   ROPT   =    0.00000
 Ionic relaxation
   EDIFFG = 0.1E-03   stopping-criterion for IOM
   NSW    =      0    number of steps for IOM
   NBLOCK =      1;   KBLOCK =      1    inner block; outer block 
   IBRION =     -1    ionic relax: 0-MD 1-quasi-New 2-CG
   NFREE  =      0    steps in history (QN), initial steepest desc. (CG)
   ISIF   =      2    stress and relaxation
   IWAVPR =     10    prediction:  0-non 1-charg 2-wave 3-comb
   ISYM   =      2    0-nonsym 1-usesym 2-fastsym
   LCORR  =      T    Harris-Foulkes like correction to forces

   POTIM  = 0.5000    time-step for ionic-motion
   TEIN   =    0.0    initial temperature
   TEBEG  =    0.0;   TEEND  =   0.0 temperature during run
   SMASS  =  -3.00    Nose mass-parameter (am)
   estimated Nose-frequenzy (Omega)   =  0.10E-29 period in steps =****** mass=  -0.342E-27a.u.
   SCALEE = 1.0000    scale energy and forces
   NPACO  =    256;   APACO  = 16.0  distance and # of slots for P.C.
   PSTRESS=    0.0 pullay stress

  Mass of Ions in am
   POMASS =  28.09
  Ionic Valenz
   ZVAL   =   4.00
  Atomic Wigner-Seitz radii
   RWIGS  =  -1.00
  virtual crystal weights 
   VCA    =   1.00
   NELECT =       8.0000    total number of electrons
   NUPDOWN=      -1.0000    fix difference up-down

 DOS related values:
   EMIN   =  10.00;   EMAX   =-10.00  energy-range for DOS
   EFERMI =   0.00
   ISMEAR =     0;   SIGMA  =   0.10  broadening in eV -4-tet -1-fermi 0-gaus

 Electronic relaxation 2 (details)
   IALGO  =     38    algorithm
   LDIAG  =      T    sub-space diagonalisation (order eigenvalues)
   LSUBROT=      F    optimize rotation matrix (better conditioning)
   TURBO    =      0    0=normal 1=particle mesh
   IRESTART =      0    0=no restart 2=restart with 2 vectors
   NREBOOT  =      0    no. of reboots
   NMIN     =      0    reboot dimension
   EREF     =   0.00    reference energy to select bands
   IMIX   =      4    mixing-type and parameters
     AMIX     =   0.40;   BMIX     =  1.00
     AMIX_MAG =   1.60;   BMIX_MAG =  1.00
     AMIN     =   0.10
     WC   =   100.;   INIMIX=   1;  MIXPRE=   1;  MAXMIX= -45

 Intra band minimization:
   WEIMIN = 0.0000     energy-eigenvalue tresh-hold
   EBREAK =  0.31E-06  absolut break condition
   DEPER  =   0.30     relativ break condition  

   TIME   =   0.40     timestep for ELM

  volume/ion in A,a.u.               =      20.44       137.94
  Fermi-wavevector in a.u.,A,eV,Ry     =   0.950445  1.796081 12.290776  0.903347
  Thomas-Fermi vector in A             =   2.078823
 
 Write flags
   LWAVE  =      F    write WAVECAR
   LCHARG =      F    write CHGCAR
   LVTOT  =      F    write LOCPOT, total local potential
   LVHAR  =      F    write LOCPOT, Hartree potential only
   LELF   =      F    write electronic localiz. function (ELF)
   LORBIT =     10    0 simple, 1 ext, 2 COOP (PROOUT)


 Dipole corrections
   LMONO  =      F    monopole corrections only (constant potential shift)
   LDIPOL =      F    correct potential (dipole corrections)
   IDIPOL =      0    1-x, 2-y, 3-z, 4-all directions 
   EPSILON=  1.0000000 bulk dielectric constant

 Exchange correlation treatment:
   GGA     =    --    GGA type
   LEXCH   =     8    internal setting for exchange type
   VOSKOWN=      0    Vosko Wilk Nusair interpolation
   LHFCALC =     F    Hartree Fock is set to
   LHFONE  =     F    Hartree Fock one center treatment
   AEXX    =    0.0000 exact exchange contribution

 Linear response parameters
   LEPSILON=     F    determine dielectric tensor
   LRPA    =     F    only Hartree local field effects (RPA)
   LNABLA  =     F    use nabla operator in PAW spheres
   LVEL    =     F    velocity operator in full k-point grid
   LINTERFAST=   F  fast interpolation
   KINTER  =     0    interpolate to denser k-point grid
   CSHIFT  =0.1000    complex shift for real part using Kramers Kronig
   OMEGAMAX=  -1.0    maximum frequency
   DEG_THRESHOLD= 0.2000000E-02 threshold for treating states as degnerate
   RTIME   =    0.100 relaxation time in fs

 Orbital magnetization related:
   ORBITALMAG=     F  switch on orbital magnetization
   LCHIMAG   =     F  perturbation theory with respect to B field
   DQ        =  0.001000  dq finite difference perturbation B field



--------------------------------------------------------------------------------------------------------


 Static calculation
 charge density and potential remain constant during run
 non-spin polarized calculation
 Variant of blocked Davidson
 Davidson routine will perform the subspace rotation
 perform sub-space diagonalisation
    after iterative eigenvector-optimisation
 no mixing
 using additional bands            4
 reciprocal scheme for non local part
 use partial core corrections
 calculate Harris-corrections to forces 
   (improved forces if not selfconsistent)
 use gradient corrections 
 WARNING: stress and forces are not correct
  (second derivative of E(xc) not defined)
 use of overlap-Matrix (Vanderbilt PP)
 Gauss-broadening in eV      SIGMA  =   0.10


--------------------------------------------------------------------------------------------------------


  energy-cutoff  :      500.00
  volume of cell :       40.88
      direct lattice vectors                 reciprocal lattice vectors
     2.734225340  2.734225340  0.000000000     0.182867152  0.182867152 -0.182867152
     0.000000000  2.734225340  2.734225340    -0.182867152  0.182867152  0.182867152
     2.734225340  0.000000000  2.734225340     0.182867152 -0.182867152  0.182867152

  length of vectors
     3.866778559  3.866778559  3.866778559     0.316735198  0.316735198  0.316735198


 
 k-points in units of 2pi/SCALE and weight: Si_FCC primitive G-X-W-K-G-L-U-W-L-K U-X
   0.00000000  0.00000000  0.00000000       0.005
   0.00962459  0.00000000  0.00000000       0.005
   0.01924917  0.00000000  0.00000000       0.005
   0.02887376  0.00000000  0.00000000       0.005
   0.03849835  0.00000000  0.00000000       0.005
   0.04812293  0.00000000  0.00000000       0.005
   0.05774752  0.00000000  0.00000000       0.005
   0.06737211  0.00000000  0.00000000       0.005
   0.07699670  0.00000000  0.00000000       0.005
   0.08662128  0.00000000  0.00000000       0.005
   0.09624587  0.00000000  0.00000000       0.005
   0.10587046  0.00000000  0.00000000       0.005
   0.11549504  0.00000000  0.00000000       0.005
   0.12511963  0.00000000  0.00000000       0.005
   0.13474422  0.00000000  0.00000000       0.005
   0.14436880  0.00000000  0.00000000       0.005
   0.15399339  0.00000000  0.00000000       0.005
   0.16361798  0.00000000  0.00000000       0.005
   0.17324256  0.00000000  0.00000000       0.005
   0.18286715  0.00000000  0.00000000       0.005
   0.18286715  0.00000000  0.00000000       0.005
   0.18286715  0.00000000  0.00481229       0.005
   0.18286715  0.00000000  0.00962459       0.005
   0.18286715  0.00000000  0.01443688       0.005
   0.18286715  0.00000000  0.01924917       0.005
   0.18286715  0.00000000  0.02406147       0.005
   0.18286715  0.00000000  0.02887376       0.005
   0.18286715  0.00000000  0.03368605       0.005
   0.18286715  0.00000000  0.03849835       0.005
   0.18286715  0.00000000  0.04331064       0.005
   0.18286715  0.00000000  0.04812293       0.005
   0.18286715  0.00000000  0.05293523       0.005
   0.18286715  0.00000000  0.05774752       0.005
   0.18286715  0.00000000  0.06255982       0.005
   0.18286715  0.00000000  0.06737211       0.005
   0.18286715  0.00000000  0.07218440       0.005
   0.18286715  0.00000000  0.07699670       0.005
   0.18286715  0.00000000  0.08180899       0.005
   0.18286715  0.00000000  0.08662128       0.005
   0.18286715  0.00000000  0.09143358       0.005
   0.18286715  0.00000000  0.09143358       0.005
   0.18046100  0.00000000  0.09383972       0.005
   0.17805486  0.00000000  0.09624587       0.005
   0.17564871  0.00000000  0.09865202       0.005
   0.17324256  0.00000000  0.10105816       0.005
   0.17083642  0.00000000  0.10346431       0.005
   0.16843027  0.00000000  0.10587046       0.005
   0.16602412  0.00000000  0.10827660       0.005
   0.16361798  0.00000000  0.11068275       0.005
   0.16121183  0.00000000  0.11308890       0.005
   0.15880568  0.00000000  0.11549504       0.005
   0.15639954  0.00000000  0.11790119       0.005
   0.15399339  0.00000000  0.12030734       0.005
   0.15158724  0.00000000  0.12271348       0.005
   0.14918110  0.00000000  0.12511963       0.005
   0.14677495  0.00000000  0.12752578       0.005
   0.14436880  0.00000000  0.12993192       0.005
   0.14196266  0.00000000  0.13233807       0.005
   0.13955651  0.00000000  0.13474422       0.005
   0.13715036  0.00000000  0.13715036       0.005
   0.13715036  0.00000000  0.13715036       0.005
   0.12993192  0.00000000  0.12993192       0.005
   0.12271348  0.00000000  0.12271348       0.005
   0.11549504  0.00000000  0.11549504       0.005
   0.10827660  0.00000000  0.10827660       0.005
   0.10105816  0.00000000  0.10105816       0.005
   0.09383972  0.00000000  0.09383972       0.005
   0.08662128  0.00000000  0.08662128       0.005
   0.07940284  0.00000000  0.07940284       0.005
   0.07218440  0.00000000  0.07218440       0.005
   0.06496596  0.00000000  0.06496596       0.005
   0.05774752  0.00000000  0.05774752       0.005
   0.05052908  0.00000000  0.05052908       0.005
   0.04331064  0.00000000  0.04331064       0.005
   0.03609220  0.00000000  0.03609220       0.005
   0.02887376  0.00000000  0.02887376       0.005
   0.02165532  0.00000000  0.02165532       0.005
   0.01443688  0.00000000  0.01443688       0.005
   0.00721844  0.00000000  0.00721844       0.005
   0.00000000  0.00000000  0.00000000       0.005
   0.00000000  0.00000000  0.00000000       0.005
   0.00481229  0.00481229  0.00481229       0.005
   0.00962459  0.00962459  0.00962459       0.005
   0.01443688  0.01443688  0.01443688       0.005
   0.01924917  0.01924917  0.01924917       0.005
   0.02406147  0.02406147  0.02406147       0.005
   0.02887376  0.02887376  0.02887376       0.005
   0.03368605  0.03368605  0.03368605       0.005
   0.03849835  0.03849835  0.03849835       0.005
   0.04331064  0.04331064  0.04331064       0.005
   0.04812293  0.04812293  0.04812293       0.005
   0.05293523  0.05293523  0.05293523       0.005
   0.05774752  0.05774752  0.05774752       0.005
   0.06255982  0.06255982  0.06255982       0.005
   0.06737211  0.06737211  0.06737211       0.005
   0.07218440  0.07218440  0.07218440       0.005
   0.07699670  0.07699670  0.07699670       0.005
   0.08180899  0.08180899  0.08180899       0.005
   0.08662128  0.08662128  0.08662128       0.005
   0.09143358  0.09143358  0.09143358       0.005
   0.09143358  0.09143358  0.09143358       0.005
   0.09624587  0.08902743  0.08902743       0.005
   0.10105816  0.08662128  0.08662128       0.005
   0.10587046  0.08421514  0.08421514       0.005
   0.11068275  0.08180899  0.08180899       0.005
   0.11549504  0.07940284  0.07940284       0.005
   0.12030734  0.07699670  0.07699670       0.005
   0.12511963  0.07459055  0.07459055       0.005
   0.12993192  0.07218440  0.07218440       0.005
   0.13474422  0.06977826  0.06977826       0.005
   0.13955651  0.06737211  0.06737211       0.005
   0.14436880  0.06496596  0.06496596       0.005
   0.14918110  0.06255982  0.06255982       0.005
   0.15399339  0.06015367  0.06015367       0.005
   0.15880568  0.05774752  0.05774752       0.005
   0.16361798  0.05534137  0.05534137       0.005
   0.16843027  0.05293523  0.05293523       0.005
   0.17324256  0.05052908  0.05052908       0.005
   0.17805486  0.04812293  0.04812293       0.005
   0.18286715  0.04571679  0.04571679       0.005
   0.18286715  0.04571679  0.04571679       0.005
   0.18286715  0.04331064  0.04812293       0.005
   0.18286715  0.04090449  0.05052908       0.005
   0.18286715  0.03849835  0.05293523       0.005
   0.18286715  0.03609220  0.05534137       0.005
   0.18286715  0.03368605  0.05774752       0.005
   0.18286715  0.03127991  0.06015367       0.005
   0.18286715  0.02887376  0.06255982       0.005
   0.18286715  0.02646761  0.06496596       0.005
   0.18286715  0.02406147  0.06737211       0.005
   0.18286715  0.02165532  0.06977826       0.005
   0.18286715  0.01924917  0.07218440       0.005
   0.18286715  0.01684303  0.07459055       0.005
   0.18286715  0.01443688  0.07699670       0.005
   0.18286715  0.01203073  0.07940284       0.005
   0.18286715  0.00962459  0.08180899       0.005
   0.18286715  0.00721844  0.08421514       0.005
   0.18286715  0.00481229  0.08662128       0.005
   0.18286715  0.00240615  0.08902743       0.005
   0.18286715  0.00000000  0.09143358       0.005
   0.18286715  0.00000000  0.09143358       0.005
   0.17805486  0.00481229  0.09143358       0.005
   0.17324256  0.00962459  0.09143358       0.005
   0.16843027  0.01443688  0.09143358       0.005
   0.16361798  0.01924917  0.09143358       0.005
   0.15880568  0.02406147  0.09143358       0.005
   0.15399339  0.02887376  0.09143358       0.005
   0.14918110  0.03368605  0.09143358       0.005
   0.14436880  0.03849835  0.09143358       0.005
   0.13955651  0.04331064  0.09143358       0.005
   0.13474422  0.04812293  0.09143358       0.005
   0.12993192  0.05293523  0.09143358       0.005
   0.12511963  0.05774752  0.09143358       0.005
   0.12030734  0.06255982  0.09143358       0.005
   0.11549504  0.06737211  0.09143358       0.005
   0.11068275  0.07218440  0.09143358       0.005
   0.10587046  0.07699670  0.09143358       0.005
   0.10105816  0.08180899  0.09143358       0.005
   0.09624587  0.08662128  0.09143358       0.005
   0.09143358  0.09143358  0.09143358       0.005
   0.09143358  0.09143358  0.09143358       0.005
   0.09383972  0.08662128  0.09383972       0.005
   0.09624587  0.08180899  0.09624587       0.005
   0.09865202  0.07699670  0.09865202       0.005
   0.10105816  0.07218440  0.10105816       0.005
   0.10346431  0.06737211  0.10346431       0.005
   0.10587046  0.06255982  0.10587046       0.005
   0.10827660  0.05774752  0.10827660       0.005
   0.11068275  0.05293523  0.11068275       0.005
   0.11308890  0.04812293  0.11308890       0.005
   0.11549504  0.04331064  0.11549504       0.005
   0.11790119  0.03849835  0.11790119       0.005
   0.12030734  0.03368605  0.12030734       0.005
   0.12271348  0.02887376  0.12271348       0.005
   0.12511963  0.02406147  0.12511963       0.005
   0.12752578  0.01924917  0.12752578       0.005
   0.12993192  0.01443688  0.12993192       0.005
   0.13233807  0.00962459  0.13233807       0.005
   0.13474422  0.00481229  0.13474422       0.005
   0.13715036  0.00000000  0.13715036       0.005
   0.18286715  0.04571679  0.04571679       0.005
   0.18286715  0.04331064  0.04331064       0.005
   0.18286715  0.04090449  0.04090449       0.005
   0.18286715  0.03849835  0.03849835       0.005
   0.18286715  0.03609220  0.03609220       0.005
   0.18286715  0.03368605  0.03368605       0.005
   0.18286715  0.03127991  0.03127991       0.005
   0.18286715  0.02887376  0.02887376       0.005
   0.18286715  0.02646761  0.02646761       0.005
   0.18286715  0.02406147  0.02406147       0.005
   0.18286715  0.02165532  0.02165532       0.005
   0.18286715  0.01924917  0.01924917       0.005
   0.18286715  0.01684303  0.01684303       0.005
   0.18286715  0.01443688  0.01443688       0.005
   0.18286715  0.01203073  0.01203073       0.005
   0.18286715  0.00962459  0.00962459       0.005
   0.18286715  0.00721844  0.00721844       0.005
   0.18286715  0.00481229  0.00481229       0.005
   0.18286715  0.00240615  0.00240615       0.005
   0.18286715  0.00000000  0.00000000       0.005
 
 k-points in reciprocal lattice and weights: Si_FCC primitive G-X-W-K-G-L-U-W-L-K U-X
   0.00000000  0.00000000  0.00000000       0.005
   0.02631579  0.00000000  0.02631579       0.005
   0.05263158  0.00000000  0.05263158       0.005
   0.07894737  0.00000000  0.07894737       0.005
   0.10526316  0.00000000  0.10526316       0.005
   0.13157895  0.00000000  0.13157895       0.005
   0.15789474  0.00000000  0.15789474       0.005
   0.18421053  0.00000000  0.18421053       0.005
   0.21052632  0.00000000  0.21052632       0.005
   0.23684211  0.00000000  0.23684211       0.005
   0.26315789  0.00000000  0.26315789       0.005
   0.28947368  0.00000000  0.28947368       0.005
   0.31578947  0.00000000  0.31578947       0.005
   0.34210526  0.00000000  0.34210526       0.005
   0.36842105  0.00000000  0.36842105       0.005
   0.39473684  0.00000000  0.39473684       0.005
   0.42105263  0.00000000  0.42105263       0.005
   0.44736842  0.00000000  0.44736842       0.005
   0.47368421  0.00000000  0.47368421       0.005
   0.50000000  0.00000000  0.50000000       0.005
   0.50000000  0.00000000  0.50000000       0.005
   0.50000000  0.01315789  0.51315789       0.005
   0.50000000  0.02631579  0.52631579       0.005
   0.50000000  0.03947368  0.53947368       0.005
   0.50000000  0.05263158  0.55263158       0.005
   0.50000000  0.06578947  0.56578947       0.005
   0.50000000  0.07894737  0.57894737       0.005
   0.50000000  0.09210526  0.59210526       0.005
   0.50000000  0.10526316  0.60526316       0.005
   0.50000000  0.11842105  0.61842105       0.005
   0.50000000  0.13157895  0.63157895       0.005
   0.50000000  0.14473684  0.64473684       0.005
   0.50000000  0.15789474  0.65789474       0.005
   0.50000000  0.17105263  0.67105263       0.005
   0.50000000  0.18421053  0.68421053       0.005
   0.50000000  0.19736842  0.69736842       0.005
   0.50000000  0.21052632  0.71052632       0.005
   0.50000000  0.22368421  0.72368421       0.005
   0.50000000  0.23684211  0.73684211       0.005
   0.50000000  0.25000000  0.75000000       0.005
   0.50000000  0.25000000  0.75000000       0.005
   0.49342105  0.25657895  0.75000000       0.005
   0.48684211  0.26315789  0.75000000       0.005
   0.48026316  0.26973684  0.75000000       0.005
   0.47368421  0.27631579  0.75000000       0.005
   0.46710526  0.28289474  0.75000000       0.005
   0.46052632  0.28947368  0.75000000       0.005
   0.45394737  0.29605263  0.75000000       0.005
   0.44736842  0.30263158  0.75000000       0.005
   0.44078947  0.30921053  0.75000000       0.005
   0.43421053  0.31578947  0.75000000       0.005
   0.42763158  0.32236842  0.75000000       0.005
   0.42105263  0.32894737  0.75000000       0.005
   0.41447368  0.33552632  0.75000000       0.005
   0.40789474  0.34210526  0.75000000       0.005
   0.40131579  0.34868421  0.75000000       0.005
   0.39473684  0.35526316  0.75000000       0.005
   0.38815789  0.36184211  0.75000000       0.005
   0.38157895  0.36842105  0.75000000       0.005
   0.37500000  0.37500000  0.75000000       0.005
   0.37500000  0.37500000  0.75000000       0.005
   0.35526316  0.35526316  0.71052632       0.005
   0.33552632  0.33552632  0.67105263       0.005
   0.31578947  0.31578947  0.63157895       0.005
   0.29605263  0.29605263  0.59210526       0.005
   0.27631579  0.27631579  0.55263158       0.005
   0.25657895  0.25657895  0.51315789       0.005
   0.23684211  0.23684211  0.47368421       0.005
   0.21710526  0.21710526  0.43421053       0.005
   0.19736842  0.19736842  0.39473684       0.005
   0.17763158  0.17763158  0.35526316       0.005
   0.15789474  0.15789474  0.31578947       0.005
   0.13815789  0.13815789  0.27631579       0.005
   0.11842105  0.11842105  0.23684211       0.005
   0.09868421  0.09868421  0.19736842       0.005
   0.07894737  0.07894737  0.15789474       0.005
   0.05921053  0.05921053  0.11842105       0.005
   0.03947368  0.03947368  0.07894737       0.005
   0.01973684  0.01973684  0.03947368       0.005
   0.00000000  0.00000000  0.00000000       0.005
   0.00000000  0.00000000  0.00000000       0.005
   0.02631579  0.02631579  0.02631579       0.005
   0.05263158  0.05263158  0.05263158       0.005
   0.07894737  0.07894737  0.07894737       0.005
   0.10526316  0.10526316  0.10526316       0.005
   0.13157895  0.13157895  0.13157895       0.005
   0.15789474  0.15789474  0.15789474       0.005
   0.18421053  0.18421053  0.18421053       0.005
   0.21052632  0.21052632  0.21052632       0.005
   0.23684211  0.23684211  0.23684211       0.005
   0.26315789  0.26315789  0.26315789       0.005
   0.28947368  0.28947368  0.28947368       0.005
   0.31578947  0.31578947  0.31578947       0.005
   0.34210526  0.34210526  0.34210526       0.005
   0.36842105  0.36842105  0.36842105       0.005
   0.39473684  0.39473684  0.39473684       0.005
   0.42105263  0.42105263  0.42105263       0.005
   0.44736842  0.44736842  0.44736842       0.005
   0.47368421  0.47368421  0.47368421       0.005
   0.50000000  0.50000000  0.50000000       0.005
   0.50000000  0.50000000  0.50000000       0.005
   0.50657895  0.48684211  0.50657895       0.005
   0.51315789  0.47368421  0.51315789       0.005
   0.51973684  0.46052632  0.51973684       0.005
   0.52631579  0.44736842  0.52631579       0.005
   0.53289474  0.43421053  0.53289474       0.005
   0.53947368  0.42105263  0.53947368       0.005
   0.54605263  0.40789474  0.54605263       0.005
   0.55263158  0.39473684  0.55263158       0.005
   0.55921053  0.38157895  0.55921053       0.005
   0.56578947  0.36842105  0.56578947       0.005
   0.57236842  0.35526316  0.57236842       0.005
   0.57894737  0.34210526  0.57894737       0.005
   0.58552632  0.32894737  0.58552632       0.005
   0.59210526  0.31578947  0.59210526       0.005
   0.59868421  0.30263158  0.59868421       0.005
   0.60526316  0.28947368  0.60526316       0.005
   0.61184211  0.27631579  0.61184211       0.005
   0.61842105  0.26315789  0.61842105       0.005
   0.62500000  0.25000000  0.62500000       0.005
   0.62500000  0.25000000  0.62500000       0.005
   0.61842105  0.25000000  0.63157895       0.005
   0.61184211  0.25000000  0.63815789       0.005
   0.60526316  0.25000000  0.64473684       0.005
   0.59868421  0.25000000  0.65131579       0.005
   0.59210526  0.25000000  0.65789474       0.005
   0.58552632  0.25000000  0.66447368       0.005
   0.57894737  0.25000000  0.67105263       0.005
   0.57236842  0.25000000  0.67763158       0.005
   0.56578947  0.25000000  0.68421053       0.005
   0.55921053  0.25000000  0.69078947       0.005
   0.55263158  0.25000000  0.69736842       0.005
   0.54605263  0.25000000  0.70394737       0.005
   0.53947368  0.25000000  0.71052632       0.005
   0.53289474  0.25000000  0.71710526       0.005
   0.52631579  0.25000000  0.72368421       0.005
   0.51973684  0.25000000  0.73026316       0.005
   0.51315789  0.25000000  0.73684211       0.005
   0.50657895  0.25000000  0.74342105       0.005
   0.50000000  0.25000000  0.75000000       0.005
   0.50000000  0.25000000  0.75000000       0.005
   0.50000000  0.26315789  0.73684211       0.005
   0.50000000  0.27631579  0.72368421       0.005
   0.50000000  0.28947368  0.71052632       0.005
   0.50000000  0.30263158  0.69736842       0.005
   0.50000000  0.31578947  0.68421053       0.005
   0.50000000  0.32894737  0.67105263       0.005
   0.50000000  0.34210526  0.65789474       0.005
   0.50000000  0.35526316  0.64473684       0.005
   0.50000000  0.36842105  0.63157895       0.005
   0.50000000  0.38157895  0.61842105       0.005
   0.50000000  0.39473684  0.60526316       0.005
   0.50000000  0.40789474  0.59210526       0.005
   0.50000000  0.42105263  0.57894737       0.005
   0.50000000  0.43421053  0.56578947       0.005
   0.50000000  0.44736842  0.55263158       0.005
   0.50000000  0.46052632  0.53947368       0.005
   0.50000000  0.47368421  0.52631579       0.005
   0.50000000  0.48684211  0.51315789       0.005
   0.50000000  0.50000000  0.50000000       0.005
   0.50000000  0.50000000  0.50000000       0.005
   0.49342105  0.49342105  0.51315789       0.005
   0.48684211  0.48684211  0.52631579       0.005
   0.48026316  0.48026316  0.53947368       0.005
   0.47368421  0.47368421  0.55263158       0.005
   0.46710526  0.46710526  0.56578947       0.005
   0.46052632  0.46052632  0.57894737       0.005
   0.45394737  0.45394737  0.59210526       0.005
   0.44736842  0.44736842  0.60526316       0.005
   0.44078947  0.44078947  0.61842105       0.005
   0.43421053  0.43421053  0.63157895       0.005
   0.42763158  0.42763158  0.64473684       0.005
   0.42105263  0.42105263  0.65789474       0.005
   0.41447368  0.41447368  0.67105263       0.005
   0.40789474  0.40789474  0.68421053       0.005
   0.40131579  0.40131579  0.69736842       0.005
   0.39473684  0.39473684  0.71052632       0.005
   0.38815789  0.38815789  0.72368421       0.005
   0.38157895  0.38157895  0.73684211       0.005
   0.37500000  0.37500000  0.75000000       0.005
   0.62500000  0.25000000  0.62500000       0.005
   0.61842105  0.23684211  0.61842105       0.005
   0.61184211  0.22368421  0.61184211       0.005
   0.60526316  0.21052632  0.60526316       0.005
   0.59868421  0.19736842  0.59868421       0.005
   0.59210526  0.18421053  0.59210526       0.005
   0.58552632  0.17105263  0.58552632       0.005
   0.57894737  0.15789474  0.57894737       0.005
   0.57236842  0.14473684  0.57236842       0.005
   0.56578947  0.13157895  0.56578947       0.005
   0.55921053  0.11842105  0.55921053       0.005
   0.55263158  0.10526316  0.55263158       0.005
   0.54605263  0.09210526  0.54605263       0.005
   0.53947368  0.07894737  0.53947368       0.005
   0.53289474  0.06578947  0.53289474       0.005
   0.52631579  0.05263158  0.52631579       0.005
   0.51973684  0.03947368  0.51973684       0.005
   0.51315789  0.02631579  0.51315789       0.005
   0.50657895  0.01315789  0.50657895       0.005
   0.50000000  0.00000000  0.50000000       0.005
 
 position of ions in fractional coordinates (direct lattice) 
   0.00000000  0.00000000  0.00000000
   0.25000000  0.25000000  0.25000000
 
 position of ions in cartesian coordinates  (Angst):
   0.00000000  0.00000000  0.00000000
   1.36711267  1.36711267  1.36711267
 


--------------------------------------------------------------------------------------------------------


 k-point  1 :   0.0000 0.0000 0.0000  plane waves:    1037
 k-point  2 :   0.0263 0.0000 0.0263  plane waves:    1022
 k-point  3 :   0.0526 0.0000 0.0526  plane waves:    1014
 k-point  4 :   0.0789 0.0000 0.0789  plane waves:    1014
 k-point  5 :   0.1053 0.0000 0.1053  plane waves:    1006
 k-point  6 :   0.1316 0.0000 0.1316  plane waves:    1010
 k-point  7 :   0.1579 0.0000 0.1579  plane waves:    1018
 k-point  8 :   0.1842 0.0000 0.1842  plane waves:    1018
 k-point  9 :   0.2105 0.0000 0.2105  plane waves:    1018
 k-point 10 :   0.2368 0.0000 0.2368  plane waves:    1022
 k-point 11 :   0.2632 0.0000 0.2632  plane waves:    1022
 k-point 12 :   0.2895 0.0000 0.2895  plane waves:    1030
 k-point 13 :   0.3158 0.0000 0.3158  plane waves:    1030
 k-point 14 :   0.3421 0.0000 0.3421  plane waves:    1030
 k-point 15 :   0.3684 0.0000 0.3684  plane waves:    1030
 k-point 16 :   0.3947 0.0000 0.3947  plane waves:    1034
 k-point 17 :   0.4211 0.0000 0.4211  plane waves:    1042
 k-point 18 :   0.4474 0.0000 0.4474  plane waves:    1034
 k-point 19 :   0.4737 0.0000 0.4737  plane waves:    1034
 k-point 20 :   0.5000 0.0000 0.5000  plane waves:    1034
 k-point 21 :   0.5000 0.0000 0.5000  plane waves:    1034
 k-point 22 :   0.5000 0.0132 0.5132  plane waves:    1034
 k-point 23 :   0.5000 0.0263 0.5263  plane waves:    1034
 k-point 24 :   0.5000 0.0395 0.5395  plane waves:    1030
 k-point 25 :   0.5000 0.0526 0.5526  plane waves:    1034
 k-point 26 :   0.5000 0.0658 0.5658  plane waves:    1034
 k-point 27 :   0.5000 0.0789 0.5789  plane waves:    1038
 k-point 28 :   0.5000 0.0921 0.5921  plane waves:    1038
 k-point 29 :   0.5000 0.1053 0.6053  plane waves:    1046
 k-point 30 :   0.5000 0.1184 0.6184  plane waves:    1042
 k-point 31 :   0.5000 0.1316 0.6316  plane waves:    1042
 k-point 32 :   0.5000 0.1447 0.6447  plane waves:    1046
 k-point 33 :   0.5000 0.1579 0.6579  plane waves:    1040
 k-point 34 :   0.5000 0.1711 0.6711  plane waves:    1040
 k-point 35 :   0.5000 0.1842 0.6842  plane waves:    1044
 k-point 36 :   0.5000 0.1974 0.6974  plane waves:    1042
 k-point 37 :   0.5000 0.2105 0.7105  plane waves:    1042
 k-point 38 :   0.5000 0.2237 0.7237  plane waves:    1042
 k-point 39 :   0.5000 0.2368 0.7368  plane waves:    1046
 k-point 40 :   0.5000 0.2500 0.7500  plane waves:    1048
 k-point 41 :   0.5000 0.2500 0.7500  plane waves:    1048
 k-point 42 :   0.4934 0.2566 0.7500  plane waves:    1044
 k-point 43 :   0.4868 0.2632 0.7500  plane waves:    1042
 k-point 44 :   0.4803 0.2697 0.7500  plane waves:    1042
 k-point 45 :   0.4737 0.2763 0.7500  plane waves:    1042
 k-point 46 :   0.4671 0.2829 0.7500  plane waves:    1042
 k-point 47 :   0.4605 0.2895 0.7500  plane waves:    1042
 k-point 48 :   0.4539 0.2961 0.7500  plane waves:    1047
 k-point 49 :   0.4474 0.3026 0.7500  plane waves:    1043
 k-point 50 :   0.4408 0.3092 0.7500  plane waves:    1041
 k-point 51 :   0.4342 0.3158 0.7500  plane waves:    1041
 k-point 52 :   0.4276 0.3224 0.7500  plane waves:    1041
 k-point 53 :   0.4211 0.3289 0.7500  plane waves:    1043
 k-point 54 :   0.4145 0.3355 0.7500  plane waves:    1043
 k-point 55 :   0.4079 0.3421 0.7500  plane waves:    1041
 k-point 56 :   0.4013 0.3487 0.7500  plane waves:    1035
 k-point 57 :   0.3947 0.3553 0.7500  plane waves:    1036
 k-point 58 :   0.3882 0.3618 0.7500  plane waves:    1041
 k-point 59 :   0.3816 0.3684 0.7500  plane waves:    1043
 k-point 60 :   0.3750 0.3750 0.7500  plane waves:    1043
 k-point 61 :   0.3750 0.3750 0.7500  plane waves:    1043
 k-point 62 :   0.3553 0.3553 0.7105  plane waves:    1039
 k-point 63 :   0.3355 0.3355 0.6711  plane waves:    1031
 k-point 64 :   0.3158 0.3158 0.6316  plane waves:    1039
 k-point 65 :   0.2961 0.2961 0.5921  plane waves:    1037
 k-point 66 :   0.2763 0.2763 0.5526  plane waves:    1029
 k-point 67 :   0.2566 0.2566 0.5132  plane waves:    1033
 k-point 68 :   0.2368 0.2368 0.4737  plane waves:    1033
 k-point 69 :   0.2171 0.2171 0.4342  plane waves:    1047
 k-point 70 :   0.1974 0.1974 0.3947  plane waves:    1039
 k-point 71 :   0.1776 0.1776 0.3553  plane waves:    1037
 k-point 72 :   0.1579 0.1579 0.3158  plane waves:    1041
 k-point 73 :   0.1382 0.1382 0.2763  plane waves:    1029
 k-point 74 :   0.1184 0.1184 0.2368  plane waves:    1029
 k-point 75 :   0.0987 0.0987 0.1974  plane waves:    1023
 k-point 76 :   0.0789 0.0789 0.1579  plane waves:    1015
 k-point 77 :   0.0592 0.0592 0.1184  plane waves:    1019
 k-point 78 :   0.0395 0.0395 0.0789  plane waves:    1023
 k-point 79 :   0.0197 0.0197 0.0395  plane waves:    1019
 k-point 80 :   0.0000 0.0000 0.0000  plane waves:    1037
 k-point 81 :   0.0000 0.0000 0.0000  plane waves:    1037
 k-point 82 :   0.0263 0.0263 0.0263  plane waves:    1025
 k-point 83 :   0.0526 0.0526 0.0526  plane waves:    1022
 k-point 84 :   0.0789 0.0789 0.0789  plane waves:    1016
 k-point 85 :   0.1053 0.1053 0.1053  plane waves:    1016
 k-point 86 :   0.1316 0.1316 0.1316  plane waves:    1013
 k-point 87 :   0.1579 0.1579 0.1579  plane waves:    1019
 k-point 88 :   0.1842 0.1842 0.1842  plane waves:    1019
 k-point 89 :   0.2105 0.2105 0.2105  plane waves:    1025
 k-point 90 :   0.2368 0.2368 0.2368  plane waves:    1028
 k-point 91 :   0.2632 0.2632 0.2632  plane waves:    1035
 k-point 92 :   0.2895 0.2895 0.2895  plane waves:    1035
 k-point 93 :   0.3158 0.3158 0.3158  plane waves:    1041
 k-point 94 :   0.3421 0.3421 0.3421  plane waves:    1044
 k-point 95 :   0.3684 0.3684 0.3684  plane waves:    1038
 k-point 96 :   0.3947 0.3947 0.3947  plane waves:    1038
 k-point 97 :   0.4211 0.4211 0.4211  plane waves:    1038
 k-point 98 :   0.4474 0.4474 0.4474  plane waves:    1038
 k-point 99 :   0.4737 0.4737 0.4737  plane waves:    1044
 k-point ** :   0.5000 0.5000 0.5000  plane waves:    1056
 k-point ** :   0.5000 0.5000 0.5000  plane waves:    1056
 k-point ** :   0.5066 0.4868 0.5066  plane waves:    1056
 k-point ** :   0.5132 0.4737 0.5132  plane waves:    1048
 k-point ** :   0.5197 0.4605 0.5197  plane waves:    1050
 k-point ** :   0.5263 0.4474 0.5263  plane waves:    1048
 k-point ** :   0.5329 0.4342 0.5329  plane waves:    1039
 k-point ** :   0.5395 0.4211 0.5395  plane waves:    1041
 k-point ** :   0.5461 0.4079 0.5461  plane waves:    1043
 k-point ** :   0.5526 0.3947 0.5526  plane waves:    1041
 k-point ** :   0.5592 0.3816 0.5592  plane waves:    1043
 k-point ** :   0.5658 0.3684 0.5658  plane waves:    1043
 k-point ** :   0.5724 0.3553 0.5724  plane waves:    1042
 k-point ** :   0.5789 0.3421 0.5789  plane waves:    1042
 k-point ** :   0.5855 0.3289 0.5855  plane waves:    1042
 k-point ** :   0.5921 0.3158 0.5921  plane waves:    1040
 k-point ** :   0.5987 0.3026 0.5987  plane waves:    1040
 k-point ** :   0.6053 0.2895 0.6053  plane waves:    1041
 k-point ** :   0.6118 0.2763 0.6118  plane waves:    1043
 k-point ** :   0.6184 0.2632 0.6184  plane waves:    1037
 k-point ** :   0.6250 0.2500 0.6250  plane waves:    1043
 k-point ** :   0.6250 0.2500 0.6250  plane waves:    1043
 k-point ** :   0.6184 0.2500 0.6316  plane waves:    1043
 k-point ** :   0.6118 0.2500 0.6382  plane waves:    1041
 k-point ** :   0.6053 0.2500 0.6447  plane waves:    1036
 k-point ** :   0.5987 0.2500 0.6513  plane waves:    1035
 k-point ** :   0.5921 0.2500 0.6579  plane waves:    1041
 k-point ** :   0.5855 0.2500 0.6645  plane waves:    1043
 k-point ** :   0.5789 0.2500 0.6711  plane waves:    1043
 k-point ** :   0.5724 0.2500 0.6776  plane waves:    1041
 k-point ** :   0.5658 0.2500 0.6842  plane waves:    1041
 k-point ** :   0.5592 0.2500 0.6908  plane waves:    1041
 k-point ** :   0.5526 0.2500 0.6974  plane waves:    1043
 k-point ** :   0.5461 0.2500 0.7039  plane waves:    1047
 k-point ** :   0.5395 0.2500 0.7105  plane waves:    1042
 k-point ** :   0.5329 0.2500 0.7171  plane waves:    1042
 k-point ** :   0.5263 0.2500 0.7237  plane waves:    1042
 k-point ** :   0.5197 0.2500 0.7303  plane waves:    1042
 k-point ** :   0.5132 0.2500 0.7368  plane waves:    1042
 k-point ** :   0.5066 0.2500 0.7434  plane waves:    1044
 k-point ** :   0.5000 0.2500 0.7500  plane waves:    1048
 k-point ** :   0.5000 0.2500 0.7500  plane waves:    1048
 k-point ** :   0.5000 0.2632 0.7368  plane waves:    1042
 k-point ** :   0.5000 0.2763 0.7237  plane waves:    1042
 k-point ** :   0.5000 0.2895 0.7105  plane waves:    1044
 k-point ** :   0.5000 0.3026 0.6974  plane waves:    1046
 k-point ** :   0.5000 0.3158 0.6842  plane waves:    1044
 k-point ** :   0.5000 0.3289 0.6711  plane waves:    1044
 k-point ** :   0.5000 0.3421 0.6579  plane waves:    1048
 k-point ** :   0.5000 0.3553 0.6447  plane waves:    1042
 k-point ** :   0.5000 0.3684 0.6316  plane waves:    1042
 k-point ** :   0.5000 0.3816 0.6184  plane waves:    1042
 k-point ** :   0.5000 0.3947 0.6053  plane waves:    1040
 k-point ** :   0.5000 0.4079 0.5921  plane waves:    1036
 k-point ** :   0.5000 0.4211 0.5789  plane waves:    1034
 k-point ** :   0.5000 0.4342 0.5658  plane waves:    1036
 k-point ** :   0.5000 0.4474 0.5526  plane waves:    1042
 k-point ** :   0.5000 0.4605 0.5395  plane waves:    1046
 k-point ** :   0.5000 0.4737 0.5263  plane waves:    1050
 k-point ** :   0.5000 0.4868 0.5132  plane waves:    1054
 k-point ** :   0.5000 0.5000 0.5000  plane waves:    1056
 k-point ** :   0.5000 0.5000 0.5000  plane waves:    1056
 k-point ** :   0.4934 0.4934 0.5132  plane waves:    1056
 k-point ** :   0.4868 0.4868 0.5263  plane waves:    1048
 k-point ** :   0.4803 0.4803 0.5395  plane waves:    1050
 k-point ** :   0.4737 0.4737 0.5526  plane waves:    1048
 k-point ** :   0.4671 0.4671 0.5658  plane waves:    1039
 k-point ** :   0.4605 0.4605 0.5789  plane waves:    1041
 k-point ** :   0.4539 0.4539 0.5921  plane waves:    1043
 k-point ** :   0.4474 0.4474 0.6053  plane waves:    1041
 k-point ** :   0.4408 0.4408 0.6184  plane waves:    1043
 k-point ** :   0.4342 0.4342 0.6316  plane waves:    1043
 k-point ** :   0.4276 0.4276 0.6447  plane waves:    1042
 k-point ** :   0.4211 0.4211 0.6579  plane waves:    1042
 k-point ** :   0.4145 0.4145 0.6711  plane waves:    1042
 k-point ** :   0.4079 0.4079 0.6842  plane waves:    1040
 k-point ** :   0.4013 0.4013 0.6974  plane waves:    1040
 k-point ** :   0.3947 0.3947 0.7105  plane waves:    1041
 k-point ** :   0.3882 0.3882 0.7237  plane waves:    1043
 k-point ** :   0.3816 0.3816 0.7368  plane waves:    1037
 k-point ** :   0.3750 0.3750 0.7500  plane waves:    1043
 k-point ** :   0.6250 0.2500 0.6250  plane waves:    1043
 k-point ** :   0.6184 0.2368 0.6184  plane waves:    1033
 k-point ** :   0.6118 0.2237 0.6118  plane waves:    1033
 k-point ** :   0.6053 0.2105 0.6053  plane waves:    1037
 k-point ** :   0.5987 0.1974 0.5987  plane waves:    1037
 k-point ** :   0.5921 0.1842 0.5921  plane waves:    1037
 k-point ** :   0.5855 0.1711 0.5855  plane waves:    1037
 k-point ** :   0.5789 0.1579 0.5789  plane waves:    1037
 k-point ** :   0.5724 0.1447 0.5724  plane waves:    1037
 k-point ** :   0.5658 0.1316 0.5658  plane waves:    1033
 k-point ** :   0.5592 0.1184 0.5592  plane waves:    1033
 k-point ** :   0.5526 0.1053 0.5526  plane waves:    1033
 k-point ** :   0.5461 0.0921 0.5461  plane waves:    1033
 k-point ** :   0.5395 0.0789 0.5395  plane waves:    1033
 k-point ** :   0.5329 0.0658 0.5329  plane waves:    1037
 k-point ** :   0.5263 0.0526 0.5263  plane waves:    1033
 k-point ** :   0.5197 0.0395 0.5197  plane waves:    1034
 k-point ** :   0.5132 0.0263 0.5132  plane waves:    1034
 k-point ** :   0.5066 0.0132 0.5066  plane waves:    1034
 k-point ** :   0.5000 0.0000 0.5000  plane waves:    1034

 maximum and minimum number of plane-waves per node :      1056     1006

 maximum number of plane-waves:      1056
 maximum index in each direction: 
   IXMAX=    7   IYMAX=    7   IZMAX=    7
   IXMIN=   -7   IYMIN=   -7   IZMIN=   -7

 WARNING: aliasing errors must be expected set NGX to  30 to avoid them
 WARNING: aliasing errors must be expected set NGY to  30 to avoid them
 WARNING: aliasing errors must be expected set NGZ to  30 to avoid them
 aliasing errors are usually negligible using standard VASP settings
 and one can safely disregard these warnings

 serial   3D FFT for wavefunctions
 parallel 3D FFT for charge:
    minimum data exchange during FFTs selected (reduces bandwidth)


 total amount of memory used by VASP on root node    52309. kBytes
========================================================================

   base      :      30000. kBytes
   nonl-proj :      13550. kBytes
   fftplans  :       3354. kBytes
   grid      :       1969. kBytes
   one-center:          6. kBytes
   wavefun   :       3430. kBytes
 
     INWAV:  cpu time    0.00: real time    0.00
 initial charge density was supplied:
 number of electron       8.0000000 magnetization 
 keeping initial charge density in first step


--------------------------------------------------------------------------------------------------------


 Maximum index for augmentation-charges        17499 (set IRDMAX)


--------------------------------------------------------------------------------------------------------


 First call to EWALD:  gamma=   0.515
 Maximum number of real-space cells 3x 3x 3
 Maximum number of reciprocal cells 3x 3x 3

 FEWALD executed in parallel
    FEWALD:  cpu time    0.00: real time    0.00


----------------------------------------- Iteration    1(   1)  ---------------------------------------


    POTLOK:  cpu time    0.02: real time    0.02
    SETDIJ:  cpu time    0.12: real time    0.12
     EDDAV:  cpu time    0.87: real time    0.87
       DOS:  cpu time    0.00: real time    0.00
    --------------------------------------------
      LOOP:  cpu time    1.02: real time    1.27

 eigenvalue-minimisations  :  3200
 total energy-change (2. order) : 0.5525413E+01  (-0.3209865E+03)
 number of electron       8.0000000 magnetization 
 augmentation part        8.0000000 magnetization 

 Free energy of the ion-electron system (eV)
  ---------------------------------------------------
  alpha Z        PSCENC =         3.29368141
  Ewald energy   TEWEN  =      -226.95641104
  -Hartree energ DENC   =       -15.16987530
  -exchange      EXHF   =         0.00000000
  -V(xc)+E(xc)   XCENC  =       -18.05968195
  PAW double counting   =       830.13003807     -795.14899780
  entropy T*S    EENTRO =        -0.00333117
  eigenvalues    EBANDS =        21.30747723
  atomic energy  EATOM  =       206.13251344
  ---------------------------------------------------
  free energy    TOTEN  =         5.52541288 eV

  energy without entropy =        5.52874405  energy(sigma->0) =        5.52707847


--------------------------------------------------------------------------------------------------------




----------------------------------------- Iteration    1(   2)  ---------------------------------------


     EDDAV:  cpu time    1.23: real time    1.24
       DOS:  cpu time    0.00: real time    0.00
    --------------------------------------------
      LOOP:  cpu time    1.24: real time    1.37

 eigenvalue-minimisations  :  4784
 total energy-change (2. order) :-0.1632329E+02  (-0.1559952E+02)
 number of electron       8.0000000 magnetization 
 augmentation part        8.0000000 magnetization 

 Free energy of the ion-electron system (eV)
  ---------------------------------------------------
  alpha Z        PSCENC =         3.29368141
  Ewald energy   TEWEN  =      -226.95641104
  -Hartree energ DENC   =       -15.16987530
  -exchange      EXHF   =         0.00000000
  -V(xc)+E(xc)   XCENC  =       -18.05968195
  PAW double counting   =       830.13003807     -795.14899780
  entropy T*S    EENTRO =        -0.00000119
  eigenvalues    EBANDS =         4.98085394
  atomic energy  EATOM  =       206.13251344
  ---------------------------------------------------
  free energy    TOTEN  =       -10.79788043 eV

  energy without entropy =      -10.79787924  energy(sigma->0) =      -10.79787983


--------------------------------------------------------------------------------------------------------




----------------------------------------- Iteration    1(   3)  ---------------------------------------


     EDDAV:  cpu time    1.09: real time    1.09
       DOS:  cpu time    0.00: real time    0.00
    --------------------------------------------
      LOOP:  cpu time    1.09: real time    1.42

 eigenvalue-minimisations  :  4136
 total energy-change (2. order) :-0.2341466E+00  (-0.2341465E+00)
 number of electron       8.0000000 magnetization 
 augmentation part        8.0000000 magnetization 

 Free energy of the ion-electron system (eV)
  ---------------------------------------------------
  alpha Z        PSCENC =         3.29368141
  Ewald energy   TEWEN  =      -226.95641104
  -Hartree energ DENC   =       -15.16987530
  -exchange      EXHF   =         0.00000000
  -V(xc)+E(xc)   XCENC  =       -18.05968195
  PAW double counting   =       830.13003807     -795.14899780
  entropy T*S    EENTRO =        -0.00000023
  eigenvalues    EBANDS =         4.74670636
  atomic energy  EATOM  =       206.13251344
  ---------------------------------------------------
  free energy    TOTEN  =       -11.03202705 eV

  energy without entropy =      -11.03202682  energy(sigma->0) =      -11.03202693


--------------------------------------------------------------------------------------------------------




----------------------------------------- Iteration    1(   4)  ---------------------------------------


     EDDAV:  cpu time    1.35: real time    1.35
       DOS:  cpu time    0.00: real time    0.00
    --------------------------------------------
      LOOP:  cpu time    1.35: real time    1.55

 eigenvalue-minimisations  :  5208
 total energy-change (2. order) :-0.1090790E-02  (-0.1090790E-02)
 number of electron       8.0000000 magnetization 
 augmentation part        8.0000000 magnetization 

 Free energy of the ion-electron system (eV)
  ---------------------------------------------------
  alpha Z        PSCENC =         3.29368141
  Ewald energy   TEWEN  =      -226.95641104
  -Hartree energ DENC   =       -15.16987530
  -exchange      EXHF   =         0.00000000
  -V(xc)+E(xc)   XCENC  =       -18.05968195
  PAW double counting   =       830.13003807     -795.14899780
  entropy T*S    EENTRO =        -0.00000023
  eigenvalues    EBANDS =         4.74561557
  atomic energy  EATOM  =       206.13251344
  ---------------------------------------------------
  free energy    TOTEN  =       -11.03311784 eV

  energy without entropy =      -11.03311761  energy(sigma->0) =      -11.03311772


--------------------------------------------------------------------------------------------------------




----------------------------------------- Iteration    1(   5)  ---------------------------------------


     EDDAV:  cpu time    1.12: real time    1.12
       DOS:  cpu time    0.00: real time    0.00
    --------------------------------------------
      LOOP:  cpu time    1.12: real time    1.30

 eigenvalue-minimisations  :  4264
 total energy-change (2. order) :-0.1714011E-05  (-0.1714261E-05)
 number of electron       8.0000000 magnetization 
 augmentation part        8.0000000 magnetization 

 Free energy of the ion-electron system (eV)
  ---------------------------------------------------
  alpha Z        PSCENC =         3.29368141
  Ewald energy   TEWEN  =      -226.95641104
  -Hartree energ DENC   =       -15.16987530
  -exchange      EXHF   =         0.00000000
  -V(xc)+E(xc)   XCENC  =       -18.05968195
  PAW double counting   =       830.13003807     -795.14899780
  entropy T*S    EENTRO =        -0.00000023
  eigenvalues    EBANDS =         4.74561386
  atomic energy  EATOM  =       206.13251344
  ---------------------------------------------------
  free energy    TOTEN  =       -11.03311955 eV

  energy without entropy =      -11.03311932  energy(sigma->0) =      -11.03311944


--------------------------------------------------------------------------------------------------------




----------------------------------------- Iteration    1(   6)  ---------------------------------------


     EDDAV:  cpu time    1.31: real time    1.31
       DOS:  cpu time    0.00: real time    0.00
    --------------------------------------------
      LOOP:  cpu time    1.31: real time    1.59

 eigenvalue-minimisations  :  5032
 total energy-change (2. order) :-0.1826891E-07  (-0.1858860E-07)
 number of electron       8.0000000 magnetization 
 augmentation part        8.0000000 magnetization 

 Free energy of the ion-electron system (eV)
  ---------------------------------------------------
  alpha Z        PSCENC =         3.29368141
  Ewald energy   TEWEN  =      -226.95641104
  -Hartree energ DENC   =       -15.16987530
  -exchange      EXHF   =         0.00000000
  -V(xc)+E(xc)   XCENC  =       -18.05968195
  PAW double counting   =       830.13003807     -795.14899780
  entropy T*S    EENTRO =        -0.00000023
  eigenvalues    EBANDS =         4.74561384
  atomic energy  EATOM  =       206.13251344
  ---------------------------------------------------
  free energy    TOTEN  =       -11.03311957 eV

  energy without entropy =      -11.03311934  energy(sigma->0) =      -11.03311945


--------------------------------------------------------------------------------------------------------




----------------------------------------- Iteration    1(   7)  ---------------------------------------


     EDDAV:  cpu time    1.00: real time    1.00
       DOS:  cpu time    0.00: real time    0.00
    --------------------------------------------
      LOOP:  cpu time    1.00: real time    1.20

 eigenvalue-minimisations  :  3632
 total energy-change (2. order) :-0.7986500E-09  (-0.2430284E-09)
 number of electron       8.0000000 magnetization 
 augmentation part        8.0000000 magnetization 

 Free energy of the ion-electron system (eV)
  ---------------------------------------------------
  alpha Z        PSCENC =         3.29368141
  Ewald energy   TEWEN  =      -226.95641104
  -Hartree energ DENC   =       -15.16987530
  -exchange      EXHF   =         0.00000000
  -V(xc)+E(xc)   XCENC  =       -18.05968195
  PAW double counting   =       830.13003807     -795.14899780
  entropy T*S    EENTRO =        -0.00000023
  eigenvalues    EBANDS =         4.74561384
  atomic energy  EATOM  =       206.13251344
  ---------------------------------------------------
  free energy    TOTEN  =       -11.03311957 eV

  energy without entropy =      -11.03311934  energy(sigma->0) =      -11.03311946


--------------------------------------------------------------------------------------------------------




----------------------------------------- Iteration    1(   8)  ---------------------------------------


     EDDAV:  cpu time    0.92: real time    0.92
       DOS:  cpu time    0.00: real time    0.00
    --------------------------------------------
      LOOP:  cpu time    0.92: real time    1.11

 eigenvalue-minimisations  :  3216
 total energy-change (2. order) : 0.4055210E-09  (-0.5114634E-10)
 number of electron       8.0000000 magnetization 
 augmentation part        8.0000000 magnetization 

 Free energy of the ion-electron system (eV)
  ---------------------------------------------------
  alpha Z        PSCENC =         3.29368141
  Ewald energy   TEWEN  =      -226.95641104
  -Hartree energ DENC   =       -15.16987530
  -exchange      EXHF   =         0.00000000
  -V(xc)+E(xc)   XCENC  =       -18.05968195
  PAW double counting   =       830.13003807     -795.14899780
  entropy T*S    EENTRO =        -0.00000023
  eigenvalues    EBANDS =         4.74561384
  atomic energy  EATOM  =       206.13251344
  ---------------------------------------------------
  free energy    TOTEN  =       -11.03311957 eV

  energy without entropy =      -11.03311934  energy(sigma->0) =      -11.03311946


--------------------------------------------------------------------------------------------------------




----------------------------------------- Iteration    1(   9)  ---------------------------------------


     EDDAV:  cpu time    0.80: real time    0.80
       DOS:  cpu time    0.00: real time    0.00
    --------------------------------------------
      LOOP:  cpu time    0.80: real time    1.09

 eigenvalue-minimisations  :  2688
 total energy-change (2. order) :-0.7923973E-10  (-0.1627660E-10)
 number of electron       8.0000000 magnetization 
 augmentation part        8.0000000 magnetization 

 Free energy of the ion-electron system (eV)
  ---------------------------------------------------
  alpha Z        PSCENC =         3.29368141
  Ewald energy   TEWEN  =      -226.95641104
  -Hartree energ DENC   =       -15.16987530
  -exchange      EXHF   =         0.00000000
  -V(xc)+E(xc)   XCENC  =       -18.05968195
  PAW double counting   =       830.13003807     -795.14899780
  entropy T*S    EENTRO =        -0.00000023
  eigenvalues    EBANDS =         4.74561384
  atomic energy  EATOM  =       206.13251344
  ---------------------------------------------------
  free energy    TOTEN  =       -11.03311957 eV

  energy without entropy =      -11.03311934  energy(sigma->0) =      -11.03311946


--------------------------------------------------------------------------------------------------------




----------------------------------------- Iteration    1(  10)  ---------------------------------------


     EDDAV:  cpu time    0.80: real time    0.80
       DOS:  cpu time    0.00: real time    0.00
    --------------------------------------------
      LOOP:  cpu time    0.80: real time    0.99

 eigenvalue-minimisations  :  2664
 total energy-change (2. order) : 0.4206413E-11  (-0.5239287E-11)
 number of electron       8.0000000 magnetization 
 augmentation part        8.0000000 magnetization 

 Free energy of the ion-electron system (eV)
  ---------------------------------------------------
  alpha Z        PSCENC =         3.29368141
  Ewald energy   TEWEN  =      -226.95641104
  -Hartree energ DENC   =       -15.16987530
  -exchange      EXHF   =         0.00000000
  -V(xc)+E(xc)   XCENC  =       -18.05968195
  PAW double counting   =       830.13003807     -795.14899780
  entropy T*S    EENTRO =        -0.00000023
  eigenvalues    EBANDS =         4.74561384
  atomic energy  EATOM  =       206.13251344
  ---------------------------------------------------
  free energy    TOTEN  =       -11.03311957 eV

  energy without entropy =      -11.03311934  energy(sigma->0) =      -11.03311946


--------------------------------------------------------------------------------------------------------




 average (electrostatic) potential at core
  the test charge radii are     0.9892
  (the norm of the test charge is              1.0000)
       1 -83.4811       2 -83.4811
 
 
 
 E-fermi :   5.9361     XC(G=0):  -9.3279     alpha+bet :-11.7335


 k-point     1 :       0.0000    0.0000    0.0000
  band No.  band energies     occupation 
      1      -6.1982      2.00000
      2       5.6174      1.99999
      3       5.6174      1.99999
      4       5.6174      1.99999
      5       8.1745      0.00000
      6       8.1745      0.00000
      7       8.1745      0.00000
      8       8.7530      0.00000

 k-point     2 :       0.0263    0.0000    0.0263
  band No.  band energies     occupation 
      1      -6.1863      2.00000
      2       5.5322      2.00000
      3       5.5671      2.00000
      4       5.5671      2.00000
      5       8.1450      0.00000
      6       8.2395      0.00000
      7       8.2395      0.00000
      8       8.8365      0.00000

 k-point     3 :       0.0526    0.0000    0.0526
  band No.  band energies     occupation 
      1      -6.1506      2.00000
      2       5.3005      2.00000
      3       5.4300      2.00000
      4       5.4300      2.00000
      5       8.0603      0.00000
      6       8.4206      0.00000
      7       8.4206      0.00000
      8       9.0591      0.00000

 k-point     4 :       0.0789    0.0000    0.0789
  band No.  band energies     occupation 
      1      -6.0911      2.00000
      2       4.9701      2.00000
      3       5.2351      2.00000
      4       5.2351      2.00000
      5       7.9305      0.00000
      6       8.6885      0.00000
      7       8.6885      0.00000
      8       9.3596      0.00000

 k-point     5 :       0.1053    0.0000    0.1053
  band No.  band energies     occupation 
      1      -6.0079      2.00000
      2       4.5807      2.00000
      3       5.0092      2.00000
      4       5.0092      2.00000
      5       7.7683      0.00000
      6       9.0162      0.00000
      7       9.0162      0.00000
      8       9.6648      0.00000

 k-point     6 :       0.1316    0.0000    0.1316
  band No.  band energies     occupation 
      1      -5.9013      2.00000
      2       4.1573      2.00000
      3       4.7708      2.00000
      4       4.7708      2.00000
      5       7.5865      0.00000
      6       9.3847      0.00000
      7       9.3847      0.00000
      8       9.8766      0.00000

 k-point     7 :       0.1579    0.0000    0.1579
  band No.  band energies     occupation 
      1      -5.7712      2.00000
      2       3.7141      2.00000
      3       4.5313      2.00000
      4       4.5313      2.00000
      5       7.3959      0.00000
      6       9.7820      0.00000
      7       9.7820      0.00000
      8       9.8809      0.00000

 k-point     8 :       0.1842    0.0000    0.1842
  band No.  band energies     occupation 
      1      -5.6180      2.00000
      2       3.2593      2.00000
      3       4.2980      2.00000
      4       4.2980      2.00000
      5       7.2053      0.00000
      6       9.6654      0.00000
      7      10.2002      0.00000
      8      10.2002      0.00000

 k-point     9 :       0.2105    0.0000    0.2105
  band No.  band energies     occupation 
      1      -5.4419      2.00000
      2       2.7977      2.00000
      3       4.0755      2.00000
      4       4.0755      2.00000
      5       7.0214      0.00000
      6       9.3273      0.00000
      7      10.6342      0.00000
      8      10.6342      0.00000

 k-point    10 :       0.2368    0.0000    0.2368
  band No.  band energies     occupation 
      1      -5.2432      2.00000
      2       2.3325      2.00000
      3       3.8670      2.00000
      4       3.8670      2.00000
      5       6.8493      0.00000
      6       8.9465      0.00000
      7      11.0806      0.00000
      8      11.0806      0.00000

 k-point    11 :       0.2632    0.0000    0.2632
  band No.  band energies     occupation 
      1      -5.0223      2.00000
      2       1.8658      2.00000
      3       3.6746      2.00000
      4       3.6746      2.00000
      5       6.6931      0.00000
      6       8.5626      0.00000
      7      11.5369      0.00000
      8      11.5369      0.00000

 k-point    12 :       0.2895    0.0000    0.2895
  band No.  band energies     occupation 
      1      -4.7797      2.00000
      2       1.3994      2.00000
      3       3.4997      2.00000
      4       3.4997      2.00000
      5       6.5559      0.00000
      6       8.1944      0.00000
      7      12.0015      0.00000
      8      12.0015      0.00000

 k-point    13 :       0.3158    0.0000    0.3158
  band No.  band energies     occupation 
      1      -4.5157      2.00000
      2       0.9350      2.00000
      3       3.3436      2.00000
      4       3.3436      2.00000
      5       6.4401      0.00000
      6       7.8512      0.00000
      7      12.4731      0.00000
      8      12.4731      0.00000

 k-point    14 :       0.3421    0.0000    0.3421
  band No.  band energies     occupation 
      1      -4.2310      2.00000
      2       0.4740      2.00000
      3       3.2069      2.00000
      4       3.2069      2.00000
      5       6.3477      0.00000
      6       7.5383      0.00000
      7      12.9510      0.00000
      8      12.9510      0.00000

 k-point    15 :       0.3684    0.0000    0.3684
  band No.  band energies     occupation 
      1      -3.9261      2.00000
      2       0.0182      2.00000
      3       3.0905      2.00000
      4       3.0905      2.00000
      5       6.2805      0.00000
      6       7.2581      0.00000
      7      13.4341      0.00000
      8      13.4341      0.00000

 k-point    16 :       0.3947    0.0000    0.3947
  band No.  band energies     occupation 
      1      -3.6019      2.00000
      2      -0.4310      2.00000
      3       2.9946      2.00000
      4       2.9946      2.00000
      5       6.2400      0.00002
      6       7.0119      0.00000
      7      13.9212      0.00000
      8      13.9212      0.00000

 k-point    17 :       0.4211    0.0000    0.4211
  band No.  band energies     occupation 
      1      -3.2592      2.00000
      2      -0.8719      2.00000
      3       2.9197      2.00000
      4       2.9197      2.00000
      5       6.2274      0.00004
      6       6.8002      0.00000
      7      14.4089      0.00000
      8      14.4089      0.00000

 k-point    18 :       0.4474    0.0000    0.4474
  band No.  band energies     occupation 
      1      -2.8987      2.00000
      2      -1.3029      2.00000
      3       2.8661      2.00000
      4       2.8661      2.00000
      5       6.2440      0.00001
      6       6.6229      0.00000
      7      14.8883      0.00000
      8      14.8883      0.00000

 k-point    19 :       0.4737    0.0000    0.4737
  band No.  band energies     occupation 
      1      -2.5217      2.00000
      2      -1.7225      2.00000
      3       2.8338      2.00000
      4       2.8338      2.00000
      5       6.2908      0.00000
      6       6.4793      0.00000
      7      15.3254      0.00000
      8      15.3254      0.00000

 k-point    20 :       0.5000    0.0000    0.5000
  band No.  band energies     occupation 
      1      -2.1292      2.00000
      2      -2.1292      2.00000
      3       2.8230      2.00000
      4       2.8230      2.00000
      5       6.3689      0.00000
      6       6.3689      0.00000
      7      15.5553      0.00000
      8      15.5554      0.00000

 k-point    21 :       0.5000    0.0000    0.5000
  band No.  band energies     occupation 
      1      -2.1292      2.00000
      2      -2.1292      2.00000
      3       2.8230      2.00000
      4       2.8230      2.00000
      5       6.3689      0.00000
      6       6.3689      0.00000
      7      15.5553      0.00000
      8      15.5553      0.00000

 k-point    22 :       0.5000    0.0132    0.5132
  band No.  band energies     occupation 
      1      -2.1283      2.00000
      2      -2.1283      2.00000
      3       2.8141      2.00000
      4       2.8141      2.00000
      5       6.3854      0.00000
      6       6.3854      0.00000
      7      15.5293      0.00000
      8      15.5293      0.00000

 k-point    23 :       0.5000    0.0263    0.5263
  band No.  band energies     occupation 
      1      -2.1254      2.00000
      2      -2.1254      2.00000
      3       2.7879      2.00000
      4       2.7879      2.00000
      5       6.4343      0.00000
      6       6.4343      0.00000
      7      15.4459      0.00000
      8      15.4459      0.00000

 k-point    24 :       0.5000    0.0395    0.5395
  band No.  band energies     occupation 
      1      -2.1206      2.00000
      2      -2.1206      2.00000
      3       2.7460      2.00000
      4       2.7460      2.00000
      5       6.5140      0.00000
      6       6.5140      0.00000
      7      15.2959      0.00000
      8      15.2959      0.00000

 k-point    25 :       0.5000    0.0526    0.5526
  band No.  band energies     occupation 
      1      -2.1142      2.00000
      2      -2.1142      2.00000
      3       2.6910      2.00000
      4       2.6910      2.00000
      5       6.6221      0.00000
      6       6.6221      0.00000
      7      15.0808      0.00000
      8      15.0808      0.00000

 k-point    26 :       0.5000    0.0658    0.5658
  band No.  band energies     occupation 
      1      -2.1061      2.00000
      2      -2.1061      2.00000
      3       2.6256      2.00000
      4       2.6256      2.00000
      5       6.7558      0.00000
      6       6.7558      0.00000
      7      14.8156      0.00000
      8      14.8156      0.00000

 k-point    27 :       0.5000    0.0789    0.5789
  band No.  band energies     occupation 
      1      -2.0966      2.00000
      2      -2.0966      2.00000
      3       2.5528      2.00000
      4       2.5528      2.00000
      5       6.9123      0.00000
      6       6.9123      0.00000
      7      14.5180      0.00000
      8      14.5180      0.00000

 k-point    28 :       0.5000    0.0921    0.5921
  band No.  band energies     occupation 
      1      -2.0858      2.00000
      2      -2.0858      2.00000
      3       2.4754      2.00000
      4       2.4754      2.00000
      5       7.0890      0.00000
      6       7.0890      0.00000
      7      14.2010      0.00000
      8      14.2010      0.00000

 k-point    29 :       0.5000    0.1053    0.6053
  band No.  band energies     occupation 
      1      -2.0741      2.00000
      2      -2.0741      2.00000
      3       2.3960      2.00000
      4       2.3960      2.00000
      5       7.2834      0.00000
      6       7.2834      0.00000
      7      13.8729      0.00000
      8      13.8729      0.00000

 k-point    30 :       0.5000    0.1184    0.6184
  band No.  band energies     occupation 
      1      -2.0618      2.00000
      2      -2.0618      2.00000
      3       2.3167      2.00000
      4       2.3167      2.00000
      5       7.4934      0.00000
[...]
      1      -3.8076      2.00000
      2      -1.1992      2.00000
      3       3.6261      2.00000
      4       4.2517      2.00000
      5       7.7085      0.00000
      6       8.9490      0.00000
      7       9.3809      0.00000
      8      13.6296      0.00000

 k-point   167 :       0.4605    0.4605    0.5789
  band No.  band energies     occupation 
      1      -3.7588      2.00000
      2      -1.1789      2.00000
      3       3.3682      2.00000
      4       4.1800      2.00000
      5       7.7926      0.00000
      6       9.0604      0.00000
      7       9.5519      0.00000
      8      13.5910      0.00000

 k-point   168 :       0.4539    0.4539    0.5921
  band No.  band energies     occupation 
      1      -3.7012      2.00000
      2      -1.1572      2.00000
      3       3.1058      2.00000
      4       4.1021      2.00000
      5       7.8057      0.00000
      6       9.2536      0.00000
      7       9.7470      0.00000
      8      13.4096      0.00000

 k-point   169 :       0.4474    0.4474    0.6053
  band No.  band energies     occupation 
      1      -3.6352      2.00000
      2      -1.1358      2.00000
      3       2.8450      2.00000
      4       4.0202      2.00000
      5       7.7640      0.00000
      6       9.5113      0.00000
      7       9.9638      0.00000
      8      13.1349      0.00000

 k-point   170 :       0.4408    0.4408    0.6184
  band No.  band energies     occupation 
      1      -3.5607      2.00000
      2      -1.1164      2.00000
      3       2.5912      2.00000
      4       3.9360      2.00000
      5       7.6895      0.00000
      6       9.8111      0.00000
      7      10.2001      0.00000
      8      12.8237      0.00000

 k-point   171 :       0.4342    0.4342    0.6316
  band No.  band energies     occupation 
      1      -3.4781      2.00000
      2      -1.1015      2.00000
      3       2.3491      2.00000
      4       3.8514      2.00000
      5       7.5981      0.00000
      6      10.1365      0.00000
      7      10.4541      0.00000
      8      12.5021      0.00000

 k-point   172 :       0.4276    0.4276    0.6447
  band No.  band energies     occupation 
      1      -3.3875      2.00000
      2      -1.0941      2.00000
      3       2.1238      2.00000
      4       3.7677      2.00000
      5       7.4993      0.00000
      6      10.4763      0.00000
      7      10.7238      0.00000
      8      12.1826      0.00000

 k-point   173 :       0.4211    0.4211    0.6579
  band No.  band energies     occupation 
      1      -3.2896      2.00000
      2      -1.0978      2.00000
      3       1.9203      2.00000
      4       3.6861      2.00000
      5       7.3991      0.00000
      6      10.8168      0.00000
      7      11.0074      0.00000
      8      11.8781      0.00000

 k-point   174 :       0.4145    0.4145    0.6711
  band No.  band energies     occupation 
      1      -3.1847      2.00000
      2      -1.1162      2.00000
      3       1.7439      2.00000
      4       3.6076      2.00000
      5       7.3010      0.00000
      6      11.1053      0.00000
      7      11.3027      0.00000
      8      11.6403      0.00000

 k-point   175 :       0.4079    0.4079    0.6842
  band No.  band energies     occupation 
      1      -3.0740      2.00000
      2      -1.1528      2.00000
      3       1.5993      2.00000
      4       3.5332      2.00000
      5       7.2075      0.00000
      6      11.0860      0.00000
      7      11.6074      0.00000
      8      11.7246      0.00000

 k-point   176 :       0.4013    0.4013    0.6974
  band No.  band energies     occupation 
      1      -2.9587      2.00000
      2      -1.2094      2.00000
      3       1.4903      2.00000
      4       3.4634      2.00000
      5       7.1202      0.00000
      6      10.8344      0.00000
      7      11.9178      0.00000
      8      12.0547      0.00000

 k-point   177 :       0.3947    0.3947    0.7105
  band No.  band energies     occupation 
      1      -2.8415      2.00000
      2      -1.2853      2.00000
      3       1.4190      2.00000
      4       3.3989      2.00000
      5       7.0403      0.00000
      6      10.5528      0.00000
      7      12.2282      0.00000
      8      12.4279      0.00000

 k-point   178 :       0.3882    0.3882    0.7237
  band No.  band energies     occupation 
      1      -2.7266      2.00000
      2      -1.3755      2.00000
      3       1.3848      2.00000
      4       3.3402      2.00000
      5       6.9686      0.00000
      6      10.2713      0.00000
      7      12.5278      0.00000
      8      12.8130      0.00000

 k-point   179 :       0.3816    0.3816    0.7368
  band No.  band energies     occupation 
      1      -2.6223      2.00000
      2      -1.4690      2.00000
      3       1.3853      2.00000
      4       3.2876      2.00000
      5       6.9056      0.00000
      6       9.9962      0.00000
      7      12.7958      0.00000
      8      13.2007      0.00000

 k-point   180 :       0.3750    0.3750    0.7500
  band No.  band energies     occupation 
      1      -2.5440      2.00000
      2      -1.5468      2.00000
      3       1.4164      2.00000
      4       3.2416      2.00000
      5       6.8517      0.00000
      6       9.7299      0.00000
      7      12.9991      0.00000
      8      13.5347      0.00000

 k-point   181 :       0.6250    0.2500    0.6250
  band No.  band energies     occupation 
      1      -2.5440      2.00000
      2      -1.5468      2.00000
      3       1.4164      2.00000
      4       3.2416      2.00000
      5       6.8517      0.00000
      6       9.7299      0.00000
      7      12.9991      0.00000
      8      13.5347      0.00000

 k-point   182 :       0.6184    0.2368    0.6184
  band No.  band energies     occupation 
      1      -2.4886      2.00000
      2      -1.6063      2.00000
      3       1.4658      2.00000
      4       3.1999      2.00000
      5       6.8035      0.00000
      6       9.4704      0.00000
      7      13.1595      0.00000
      8      13.7032      0.00000

 k-point   183 :       0.6118    0.2237    0.6118
  band No.  band energies     occupation 
      1      -2.4381      2.00000
      2      -1.6627      2.00000
      3       1.5236      2.00000
      4       3.1602      2.00000
      5       6.7577      0.00000
      6       9.2148      0.00000
      7      13.3212      0.00000
      8      13.8759      0.00000

 k-point   184 :       0.6053    0.2105    0.6053
  band No.  band energies     occupation 
      1      -2.3924      2.00000
      2      -1.7158      2.00000
      3       1.5896      2.00000
      4       3.1225      2.00000
      5       6.7142      0.00000
      6       8.9637      0.00000
      7      13.4842      0.00000
      8      14.0772      0.00000

 k-point   185 :       0.5987    0.1974    0.5987
  band No.  band energies     occupation 
      1      -2.3515      2.00000
      2      -1.7658      2.00000
      3       1.6631      2.00000
      4       3.0869      2.00000
      5       6.6731      0.00000
      6       8.7177      0.00000
      7      13.6480      0.00000
      8      14.2193      0.00000

 k-point   186 :       0.5921    0.1842    0.5921
  band No.  band energies     occupation 
      1      -2.3151      2.00000
      2      -1.8126      2.00000
      3       1.7436      2.00000
      4       3.0534      2.00000
      5       6.6345      0.00000
      6       8.4773      0.00000
      7      13.8123      0.00000
      8      14.3505      0.00000

 k-point   187 :       0.5855    0.1711    0.5855
  band No.  band energies     occupation 
      1      -2.2831      2.00000
      2      -1.8561      2.00000
      3       1.8304      2.00000
      4       3.0221      2.00000
      5       6.5984      0.00000
      6       8.2432      0.00000
      7      13.9769      0.00000
      8      14.4725      0.00000

 k-point   188 :       0.5789    0.1579    0.5789
  band No.  band energies     occupation 
      1      -2.2551      2.00000
      2      -1.8965      2.00000
      3       1.9223      2.00000
      4       2.9930      2.00000
      5       6.5648      0.00000
      6       8.0162      0.00000
      7      14.1411      0.00000
      8      14.5989      0.00000

 k-point   189 :       0.5724    0.1447    0.5724
  band No.  band energies     occupation 
      1      -2.2309      2.00000
      2      -1.9336      2.00000
      3       2.0185      2.00000
      4       2.9661      2.00000
      5       6.5338      0.00000
      6       7.7972      0.00000
      7      14.3043      0.00000
      8      14.7202      0.00000

 k-point   190 :       0.5658    0.1316    0.5658
  band No.  band energies     occupation 
      1      -2.2101      2.00000
      2      -1.9675      2.00000
      3       2.1175      2.00000
      4       2.9415      2.00000
      5       6.5054      0.00000
      6       7.5871      0.00000
      7      14.4659      0.00000
      8      14.8383      0.00000

 k-point   191 :       0.5592    0.1184    0.5592
  band No.  band energies     occupation 
      1      -2.1923      2.00000
      2      -1.9982      2.00000
      3       2.2180      2.00000
      4       2.9191      2.00000
      5       6.4796      0.00000
      6       7.3871      0.00000
      7      14.6247      0.00000
      8      14.9529      0.00000

 k-point   192 :       0.5526    0.1053    0.5526
  band No.  band energies     occupation 
      1      -2.1774      2.00000
      2      -2.0257      2.00000
      3       2.3181      2.00000
      4       2.8990      2.00000
      5       6.4565      0.00000
      6       7.1987      0.00000
      7      14.7796      0.00000
      8      15.0630      0.00000

 k-point   193 :       0.5461    0.0921    0.5461
  band No.  band energies     occupation 
      1      -2.1650      2.00000
      2      -2.0500      2.00000
      3       2.4159      2.00000
      4       2.8813      2.00000
      5       6.4360      0.00000
      6       7.0237      0.00000
      7      14.9288      0.00000
      8      15.1645      0.00000

 k-point   194 :       0.5395    0.0789    0.5395
  band No.  band energies     occupation 
      1      -2.1547      2.00000
      2      -2.0710      2.00000
      3       2.5092      2.00000
      4       2.8659      2.00000
      5       6.4183      0.00000
      6       6.8640      0.00000
      7      15.0702      0.00000
      8      15.2589      0.00000

 k-point   195 :       0.5329    0.0658    0.5329
  band No.  band energies     occupation 
      1      -2.1465      2.00000
      2      -2.0888      2.00000
      3       2.5954      2.00000
      4       2.8528      2.00000
      5       6.4032      0.00000
      6       6.7220      0.00000
      7      15.2010      0.00000
      8      15.3434      0.00000

 k-point   196 :       0.5263    0.0526    0.5263
  band No.  band energies     occupation 
      1      -2.1400      2.00000
      2      -2.1033      2.00000
      3       2.6717      2.00000
      4       2.8421      2.00000
      5       6.3909      0.00000
      6       6.6003      0.00000
      7      15.3178      0.00000
      8      15.4161      0.00000

 k-point   197 :       0.5197    0.0395    0.5197
  band No.  band energies     occupation 
      1      -2.1352      2.00000
      2      -2.1147      2.00000
      3       2.7352      2.00000
      4       2.8338      2.00000
      5       6.3813      0.00000
      6       6.5017      0.00000
      7      15.4162      0.00000
      8      15.4754      0.00000

 k-point   198 :       0.5132    0.0263    0.5132
  band No.  band energies     occupation 
      1      -2.1318      2.00000
      2      -2.1227      2.00000
      3       2.7831      2.00000
      4       2.8278      2.00000
      5       6.3744      0.00000
      6       6.4288      0.00000
      7      15.4915      0.00000
      8      15.5192      0.00000

 k-point   199 :       0.5066    0.0132    0.5066
  band No.  band energies     occupation 
      1      -2.1299      2.00000
      2      -2.1276      2.00000
      3       2.8129      2.00000
      4       2.8242      2.00000
      5       6.3703      0.00000
      6       6.3841      0.00000
      7      15.5391      0.00000
      8      15.5462      0.00000

 k-point   200 :       0.5000    0.0000    0.5000
  band No.  band energies     occupation 
      1      -2.1292      2.00000
      2      -2.1292      2.00000
      3       2.8230      2.00000
      4       2.8230      2.00000
      5       6.3689      0.00000
      6       6.3689      0.00000
      7      15.5553      0.00000
      8      15.5553      0.00000


--------------------------------------------------------------------------------------------------------


 soft charge-density along one line, spin component           1
         0         1         2         3         4         5         6         7         8         9
 total charge-density along one line
 
 pseudopotential strength for first ion, spin component:           1
 18.437  25.723   0.000   0.000   0.000   0.000   0.000   0.000
 25.723  35.893   0.000   0.000   0.000   0.000   0.000   0.000
  0.000   0.000   4.181   0.000   0.000   7.790   0.000   0.000
  0.000   0.000   0.000   4.181   0.000   0.000   7.790   0.000
  0.000   0.000   0.000   0.000   4.181   0.000   0.000   7.790
  0.000   0.000   7.790   0.000   0.000  14.528   0.000   0.000
  0.000   0.000   0.000   7.790   0.000   0.000  14.528   0.000
  0.000   0.000   0.000   0.000   7.790   0.000   0.000  14.528
 total augmentation occupancy for first ion, spin component:           1
  2.000   0.000   0.000   0.000   0.000   0.000   0.000   0.000
  0.000   0.000   0.000   0.000   0.000   0.000   0.000   0.000
  0.000   0.000   0.667   0.000   0.000   0.000   0.000   0.000
  0.000   0.000   0.000   0.667   0.000   0.000   0.000   0.000
  0.000   0.000   0.000   0.000   0.667   0.000   0.000   0.000
  0.000   0.000   0.000   0.000   0.000   0.000   0.000   0.000
  0.000   0.000   0.000   0.000   0.000   0.000   0.000   0.000
  0.000   0.000   0.000   0.000   0.000   0.000   0.000   0.000


------------------------ aborting loop because EDIFF is reached ----------------------------------------


 


 total charge     
 
# of ion     s       p       d       tot
----------------------------------------
  1        0.738   0.942   0.000   1.680
  2        0.738   0.942   0.000   1.680
------------------------------------------------
tot        1.476   1.884   0.000   3.360
 
    CHARGE:  cpu time    0.12: real time    0.12
    FORLOC:  cpu time    0.00: real time    0.00
    FORNL :  cpu time    0.17: real time    0.18
    STRESS:  cpu time    1.30: real time    1.31
    FORCOR:  cpu time    0.02: real time    0.02
    FORHAR:  cpu time    0.01: real time    0.01
    OFIELD:  cpu time    0.00: real time    0.00

  FORCE on cell =-STRESS in cart. coord.  units (eV):
  Direction    XX          YY          ZZ          XY          YZ          ZX
  --------------------------------------------------------------------------------------
  Alpha Z     3.29368     3.29368     3.29368
  Ewald     -75.65217   -75.65217   -75.65217     0.00000     0.00000     0.00000
  Hartree     5.13098     5.13098     5.13098     0.00000     0.00000     0.00000
  E(xc)     -25.24299   -25.24299   -25.24299     0.00000     0.00000     0.00000
  Local     -29.56752   -29.56752   -29.56752     0.00001     0.00001     0.00001
  n-local    74.74649    77.03063    79.13958    -0.67150    -1.36642    -1.60973
  augment   -11.48776   -11.48776   -11.48776    -0.00001    -0.00001    -0.00001
  Kinetic    55.03083    57.70972    56.25991    -1.24458    -2.31609    -2.15079
  Fock        0.00000     0.00000     0.00000     0.00000     0.00000     0.00000
  -------------------------------------------------------------------------------------
  Total      -0.22006    -0.22006    -0.22006     0.00000     0.00000     0.00000
  in kB      -8.62435    -8.62435    -8.62435     0.00000     0.00000     0.00000
  external pressure =       -8.62 kB  Pullay stress =        0.00 kB


 VOLUME and BASIS-vectors are now :
 -----------------------------------------------------------------------------
  energy-cutoff  :      500.00
  volume of cell :       40.88
      direct lattice vectors                 reciprocal lattice vectors
     2.734225340  2.734225340  0.000000000     0.182867152  0.182867152 -0.182867152
     0.000000000  2.734225340  2.734225340    -0.182867152  0.182867152  0.182867152
     2.734225340  0.000000000  2.734225340     0.182867152 -0.182867152  0.182867152

  length of vectors
     3.866778559  3.866778559  3.866778559     0.316735198  0.316735198  0.316735198


 FORCES acting on ions
    electron-ion (+dipol)            ewald-force                    non-local-force                 convergence-correction
 -----------------------------------------------------------------------------------------------
   0.496E-07 0.504E-07 0.496E-07   -.490E-14 -.230E-15 -.532E-14   -.173E-16 -.867E-16 -.101E-15   0.844E-09 0.843E-09 0.844E-09
   -.496E-07 -.504E-07 -.496E-07   0.496E-14 -.318E-15 0.516E-14   0.555E-16 0.798E-16 0.625E-16   -.844E-09 -.843E-09 -.844E-09
 -----------------------------------------------------------------------------------------------
   0.401E-13 -.151E-13 0.104E-12   0.599E-16 -.547E-15 -.160E-15   0.382E-16 -.694E-17 -.382E-16   -.110E-13 -.991E-14 -.330E-14
 
 
 POSITION                                       TOTAL-FORCE (eV/Angst)
 -----------------------------------------------------------------------------------
      0.00000      0.00000      0.00000         0.000000      0.000000      0.000000
      1.36711      1.36711      1.36711         0.000000      0.000000      0.000000
 -----------------------------------------------------------------------------------
    total drift:                                0.000000      0.000000      0.000000


--------------------------------------------------------------------------------------------------------



  FREE ENERGIE OF THE ION-ELECTRON SYSTEM (eV)
  ---------------------------------------------------
  free  energy   TOTEN  =       -11.03311957 eV

  energy  without entropy=      -11.03311934  energy(sigma->0) =      -11.03311946
 


--------------------------------------------------------------------------------------------------------


    POTLOK:  cpu time    0.14: real time    0.14


--------------------------------------------------------------------------------------------------------


     LOOP+:  cpu time   12.55: real time   15.49
    4ORBIT:  cpu time    0.00: real time    0.00
 


 total charge     
 
# of ion     s       p       d       tot
----------------------------------------
  1        0.738   0.942   0.000   1.680
  2        0.738   0.942   0.000   1.680
------------------------------------------------
tot        1.476   1.884   0.000   3.360
 

 total amount of memory used by VASP on root node    52309. kBytes
========================================================================

   base      :      30000. kBytes
   nonl-proj :      13550. kBytes
   fftplans  :       3354. kBytes
   grid      :       1969. kBytes
   one-center:          6. kBytes
   wavefun   :       3430. kBytes
 
  
  
 General timing and accounting informations for this job:
 ========================================================
  
                  Total CPU time used (sec):       13.568
                            User time (sec):       13.467
                          System time (sec):        0.101
                         Elapsed time (sec):       17.887
  
                   Maximum memory used (kb):      101532.
                   Average memory used (kb):           0.
  
                          Minor page faults:        16963
                          Major page faults:            0
                 Voluntary context switches:         1056
