<?xml version="1.0" encoding="ISO-8859-1"?>
<modeling>
 <generator>
  <i name="program" type="string">vasp </i>
  <i name="version" type="string">5.3.5  </i>
  <i name="subversion" type="string">31Mar14 (build Aug  4 2014 13:16:38) complex                          parallel </i>
  <i name="platform" type="string">GRPO3GRAPHENEAVX </i>
  <i name="date" type="string">2015 05 01 </i>
  <i name="time" type="string">08:54:47 </i>
 </generator>
 <incar>
  <i type="string" name="PREC">accurate</i>
  <i type="logical" name="ADDGRID"> T  </i>
  <i type="int" name="ICHARG">    11</i>
  <i type="int" name="NELMIN">    10</i>
  <i type="int" name="IBRION">    -1</i>
  <i name="EDIFF">      0.00001000</i>
  <i type="int" name="NSW">     0</i>
  <i name="ENCUT">    500.00000000</i>
  <i name="POTIM">      0.50000000</i>
  <i type="logical" name="LREAL"> F  </i>
  <i type="int" name="ISMEAR">     0</i>
  <i name="SIGMA">      0.10000000</i>
  <i type="logical" name="LWAVE"> F  </i>
  <i type="logical" name="LCHARG"> F  </i>
  <i type="logical" name="LORBIT"> F  </i>
  <i type="logical" name="LASPH"> T  </i>
  <i type="logical" name="LASPH"> T  </i>
 </incar>
 <kpoints>
  <generation param="listgenerated">
   <i name="divisions" type="int">      20 </i>
   <v>       0.00000000       0.00000000       0.00000000 </v>
   <v>       0.50000000       0.00000000       0.50000000 </v>
   <v>       0.50000000       0.25000000       0.75000000 </v>
   <v>       0.37500000       0.37500000       0.75000000 </v>
   <v>       0.00000000       0.00000000       0.00000000 </v>
   <v>       0.50000000       0.50000000       0.50000000 </v>
   <v>       0.62500000       0.25000000       0.62500000 </v>
   <v>       0.50000000       0.25000000       0.75000000 </v>
   <v>       0.50000000       0.50000000       0.50000000 </v>
   <v>       0.62500000       0.25000000       0.62500000 </v>
   <v>       0.50000000       0.00000000       0.50000000 </v>
  </generation>
  <varray name="kpointlist" >
   <v>       0.00000000       0.00000000       0.00000000 </v>
   <v>       0.02631579       0.00000000       0.02631579 </v>
   <v>       0.05263158       0.00000000       0.05263158 </v>
   <v>       0.07894737       0.00000000       0.07894737 </v>
   <v>       0.10526316       0.00000000       0.10526316 </v>
   <v>       0.13157895       0.00000000       0.13157895 </v>
   <v>       0.15789474       0.00000000       0.15789474 </v>
   <v>       0.18421053       0.00000000       0.18421053 </v>
   <v>       0.21052632       0.00000000       0.21052632 </v>
   <v>       0.23684211       0.00000000       0.23684211 </v>
   <v>       0.26315789       0.00000000       0.26315789 </v>
   <v>       0.28947368       0.00000000       0.28947368 </v>
   <v>       0.31578947       0.00000000       0.31578947 </v>
   <v>       0.34210526       0.00000000       0.34210526 </v>
   <v>       0.36842105       0.00000000       0.36842105 </v>
   <v>       0.39473684       0.00000000       0.39473684 </v>
   <v>       0.42105263       0.00000000       0.42105263 </v>
   <v>       0.44736842       0.00000000       0.44736842 </v>
   <v>       0.47368421       0.00000000       0.47368421 </v>
   <v>       0.50000000       0.00000000       0.50000000 </v>
   <v>       0.50000000       0.00000000       0.50000000 </v>
   <v>       0.50000000       0.01315789       0.51315789 </v>
   <v>       0.50000000       0.02631579       0.52631579 </v>
   <v>       0.50000000       0.03947368       0.53947368 </v>
   <v>       0.50000000       0.05263158       0.55263158 </v>
   <v>       0.50000000       0.06578947       0.56578947 </v>
   <v>       0.50000000       0.07894737       0.57894737 </v>
   <v>       0.50000000       0.09210526       0.59210526 </v>
   <v>       0.50000000       0.10526316       0.60526316 </v>
   <v>       0.50000000       0.11842105       0.61842105 </v>
   <v>       0.50000000       0.13157895       0.63157895 </v>
   <v>       0.50000000       0.14473684       0.64473684 </v>
   <v>       0.50000000       0.15789474       0.65789474 </v>
   <v>       0.50000000       0.17105263       0.67105263 </v>
   <v>       0.50000000       0.18421053       0.68421053 </v>
   <v>       0.50000000       0.19736842       0.69736842 </v>
   <v>       0.50000000       0.21052632       0.71052632 </v>
   <v>       0.50000000       0.22368421       0.72368421 </v>
   <v>       0.50000000       0.23684211       0.73684211 </v>
   <v>       0.50000000       0.25000000       0.75000000 </v>
   <v>       0.50000000       0.25000000       0.75000000 </v>
   <v>       0.49342105       0.25657895       0.75000000 </v>
   <v>       0.48684211       0.26315789       0.75000000 </v>
   <v>       0.48026316       0.26973684       0.75000000 </v>
   <v>       0.47368421       0.27631579       0.75000000 </v>
   <v>       0.46710526       0.28289474       0.75000000 </v>
   <v>       0.46052632       0.28947368       0.75000000 </v>
   <v>       0.45394737       0.29605263       0.75000000 </v>
   <v>       0.44736842       0.30263158       0.75000000 </v>
   <v>       0.44078947       0.30921053       0.75000000 </v>
   <v>       0.43421053       0.31578947       0.75000000 </v>
   <v>       0.42763158       0.32236842       0.75000000 </v>
   <v>       0.42105263       0.32894737       0.75000000 </v>
   <v>       0.41447368       0.33552632       0.75000000 </v>
   <v>       0.40789474       0.34210526       0.75000000 </v>
   <v>       0.40131579       0.34868421       0.75000000 </v>
   <v>       0.39473684       0.35526316       0.75000000 </v>
   <v>       0.38815789       0.36184211       0.75000000 </v>
   <v>       0.38157895       0.36842105       0.75000000 </v>
   <v>       0.37500000       0.37500000       0.75000000 </v>
   <v>       0.37500000       0.37500000       0.75000000 </v>
   <v>       0.35526316       0.35526316       0.71052632 </v>
   <v>       0.33552632       0.33552632       0.67105263 </v>
   <v>       0.31578947       0.31578947       0.63157895 </v>
   <v>       0.29605263       0.29605263       0.59210526 </v>
   <v>       0.27631579       0.27631579       0.55263158 </v>
   <v>       0.25657895       0.25657895       0.51315789 </v>
   <v>       0.23684211       0.23684211       0.47368421 </v>
   <v>       0.21710526       0.21710526       0.43421053 </v>
   <v>       0.19736842       0.19736842       0.39473684 </v>
   <v>       0.17763158       0.17763158       0.35526316 </v>
   <v>       0.15789474       0.15789474       0.31578947 </v>
   <v>       0.13815789       0.13815789       0.27631579 </v>
   <v>       0.11842105       0.11842105       0.23684211 </v>
   <v>       0.09868421       0.09868421       0.19736842 </v>
   <v>       0.07894737       0.07894737       0.15789474 </v>
   <v>       0.05921053       0.05921053       0.11842105 </v>
   <v>       0.03947368       0.03947368       0.07894737 </v>
   <v>       0.01973684       0.01973684       0.03947368 </v>
   <v>       0.00000000       0.00000000       0.00000000 </v>
   <v>       0.00000000       0.00000000       0.00000000 </v>
   <v>       0.02631579       0.02631579       0.02631579 </v>
   <v>       0.05263158       0.05263158       0.05263158 </v>
   <v>       0.07894737       0.07894737       0.07894737 </v>
   <v>       0.10526316       0.10526316       0.10526316 </v>
   <v>       0.13157895       0.13157895       0.13157895 </v>
   <v>       0.15789474       0.15789474       0.15789474 </v>
   <v>       0.18421053       0.18421053       0.18421053 </v>
   <v>       0.21052632       0.21052632       0.21052632 </v>
   <v>       0.23684211       0.23684211       0.23684211 </v>
   <v>       0.26315789       0.26315789       0.26315789 </v>
   <v>       0.28947368       0.28947368       0.28947368 </v>
   <v>       0.31578947       0.31578947       0.31578947 </v>
   <v>       0.34210526       0.34210526       0.34210526 </v>
   <v>       0.36842105       0.36842105       0.36842105 </v>
   <v>       0.39473684       0.39473684       0.39473684 </v>
   <v>       0.42105263       0.42105263       0.42105263 </v>
   <v>       0.44736842       0.44736842       0.44736842 </v>
   <v>       0.47368421       0.47368421       0.47368421 </v>
   <v>       0.50000000       0.50000000       0.50000000 </v>
   <v>       0.50000000       0.50000000       0.50000000 </v>
   <v>       0.50657895       0.48684211       0.50657895 </v>
   <v>       0.51315789       0.47368421       0.51315789 </v>
   <v>       0.51973684       0.46052632       0.51973684 </v>
   <v>       0.52631579       0.44736842       0.52631579 </v>
   <v>       0.53289474       0.43421053       0.53289474 </v>
   <v>       0.53947368       0.42105263       0.53947368 </v>
   <v>       0.54605263       0.40789474       0.54605263 </v>
   <v>       0.55263158       0.39473684       0.55263158 </v>
   <v>       0.55921053       0.38157895       0.55921053 </v>
   <v>       0.56578947       0.36842105       0.56578947 </v>
   <v>       0.57236842       0.35526316       0.57236842 </v>
   <v>       0.57894737       0.34210526       0.57894737 </v>
   <v>       0.58552632       0.32894737       0.58552632 </v>
   <v>       0.59210526       0.31578947       0.59210526 </v>
   <v>       0.59868421       0.30263158       0.59868421 </v>
   <v>       0.60526316       0.28947368       0.60526316 </v>
   <v>       0.61184211       0.27631579       0.61184211 </v>
   <v>       0.61842105       0.26315789       0.61842105 </v>
   <v>       0.62500000       0.25000000       0.62500000 </v>
   <v>       0.62500000       0.25000000       0.62500000 </v>
   <v>       0.61842105       0.25000000       0.63157895 </v>
   <v>       0.61184211       0.25000000       0.63815789 </v>
   <v>       0.60526316       0.25000000       0.64473684 </v>
   <v>       0.59868421       0.25000000       0.65131579 </v>
   <v>       0.59210526       0.25000000       0.65789474 </v>
   <v>       0.58552632       0.25000000       0.66447368 </v>
   <v>       0.57894737       0.25000000       0.67105263 </v>
   <v>       0.57236842       0.25000000       0.67763158 </v>
   <v>       0.56578947       0.25000000       0.68421053 </v>
   <v>       0.55921053       0.25000000       0.69078947 </v>
   <v>       0.55263158       0.25000000       0.69736842 </v>
   <v>       0.54605263       0.25000000       0.70394737 </v>
   <v>       0.53947368       0.25000000       0.71052632 </v>
   <v>       0.53289474       0.25000000       0.71710526 </v>
   <v>       0.52631579       0.25000000       0.72368421 </v>
   <v>       0.51973684       0.25000000       0.73026316 </v>
   <v>       0.51315789       0.25000000       0.73684211 </v>
   <v>       0.50657895       0.25000000       0.74342105 </v>
   <v>       0.50000000       0.25000000       0.75000000 </v>
   <v>       0.50000000       0.25000000       0.75000000 </v>
   <v>       0.50000000       0.26315789       0.73684211 </v>
   <v>       0.50000000       0.27631579       0.72368421 </v>
   <v>       0.50000000       0.28947368       0.71052632 </v>
   <v>       0.50000000       0.30263158       0.69736842 </v>
   <v>       0.50000000       0.31578947       0.68421053 </v>
   <v>       0.50000000       0.32894737       0.67105263 </v>
   <v>       0.50000000       0.34210526       0.65789474 </v>
   <v>       0.50000000       0.35526316       0.64473684 </v>
   <v>       0.50000000       0.36842105       0.63157895 </v>
   <v>       0.50000000       0.38157895       0.61842105 </v>
   <v>       0.50000000       0.39473684       0.60526316 </v>
   <v>       0.50000000       0.40789474       0.59210526 </v>
   <v>       0.50000000       0.42105263       0.57894737 </v>
   <v>       0.50000000       0.43421053       0.56578947 </v>
   <v>       0.50000000       0.44736842       0.55263158 </v>
   <v>       0.50000000       0.46052632       0.53947368 </v>
   <v>       0.50000000       0.47368421       0.52631579 </v>
   <v>       0.50000000       0.48684211       0.51315789 </v>
   <v>       0.50000000       0.50000000       0.50000000 </v>
   <v>       0.50000000       0.50000000       0.50000000 </v>
   <v>       0.49342105       0.49342105       0.51315789 </v>
   <v>       0.48684211       0.48684211       0.52631579 </v>
   <v>       0.48026316       0.48026316       0.53947368 </v>
   <v>       0.47368421       0.47368421       0.55263158 </v>
   <v>       0.46710526       0.46710526       0.56578947 </v>
   <v>       0.46052632       0.46052632       0.57894737 </v>
   <v>       0.45394737       0.45394737       0.59210526 </v>
   <v>       0.44736842       0.44736842       0.60526316 </v>
   <v>       0.44078947       0.44078947       0.61842105 </v>
   <v>       0.43421053       0.43421053       0.63157895 </v>
   <v>       0.42763158       0.42763158       0.64473684 </v>
   <v>       0.42105263       0.42105263       0.65789474 </v>
   <v>       0.41447368       0.41447368       0.67105263 </v>
   <v>       0.40789474       0.40789474       0.68421053 </v>
   <v>       0.40131579       0.40131579       0.69736842 </v>
   <v>       0.39473684       0.39473684       0.71052632 </v>
   <v>       0.38815789       0.38815789       0.72368421 </v>
   <v>       0.38157895       0.38157895       0.73684211 </v>
   <v>       0.37500000       0.37500000       0.75000000 </v>
   <v>       0.62500000       0.25000000       0.62500000 </v>
   <v>       0.61842105       0.23684211       0.61842105 </v>
   <v>       0.61184211       0.22368421       0.61184211 </v>
   <v>       0.60526316       0.21052632       0.60526316 </v>
   <v>       0.59868421       0.19736842       0.59868421 </v>
   <v>       0.59210526       0.18421053       0.59210526 </v>
   <v>       0.58552632       0.17105263       0.58552632 </v>
   <v>       0.57894737       0.15789474       0.57894737 </v>
   <v>       0.57236842       0.14473684       0.57236842 </v>
   <v>       0.56578947       0.13157895       0.56578947 </v>
   <v>       0.55921053       0.11842105       0.55921053 </v>
   <v>       0.55263158       0.10526316       0.55263158 </v>
   <v>       0.54605263       0.09210526       0.54605263 </v>
   <v>       0.53947368       0.07894737       0.53947368 </v>
   <v>       0.53289474       0.06578947       0.53289474 </v>
   <v>       0.52631579       0.05263158       0.52631579 </v>
   <v>       0.51973684       0.03947368       0.51973684 </v>
   <v>       0.51315789       0.02631579       0.51315789 </v>
   <v>       0.50657895       0.01315789       0.50657895 </v>
   <v>       0.50000000       0.00000000       0.50000000 </v>
  </varray>
  <varray name="weights" >
   <v>       0.00500000 </v>
   <v>       0.00500000 </v>
   <v>       0.00500000 </v>
   <v>       0.00500000 </v>
   <v>       0.00500000 </v>
   <v>       0.00500000 </v>
   <v>       0.00500000 </v>
   <v>       0.00500000 </v>
   <v>       0.00500000 </v>
   <v>       0.00500000 </v>
   <v>       0.00500000 </v>
   <v>       0.00500000 </v>
   <v>       0.00500000 </v>
   <v>       0.00500000 </v>
   <v>       0.00500000 </v>
   <v>       0.00500000 </v>
   <v>       0.00500000 </v>
   <v>       0.00500000 </v>
   <v>       0.00500000 </v>
   <v>       0.00500000 </v>
   <v>       0.00500000 </v>
   <v>       0.00500000 </v>
   <v>       0.00500000 </v>
   <v>       0.00500000 </v>
   <v>       0.00500000 </v>
   <v>       0.00500000 </v>
   <v>       0.00500000 </v>
   <v>       0.00500000 </v>
   <v>       0.00500000 </v>
   <v>       0.00500000 </v>
   <v>       0.00500000 </v>
   <v>       0.00500000 </v>
   <v>       0.00500000 </v>
   <v>       0.00500000 </v>
   <v>       0.00500000 </v>
   <v>       0.00500000 </v>
   <v>       0.00500000 </v>
   <v>       0.00500000 </v>
   <v>       0.00500000 </v>
   <v>       0.00500000 </v>
   <v>       0.00500000 </v>
   <v>       0.00500000 </v>
   <v>       0.00500000 </v>
   <v>       0.00500000 </v>
   <v>       0.00500000 </v>
   <v>       0.00500000 </v>
   <v>       0.00500000 </v>
   <v>       0.00500000 </v>
   <v>       0.00500000 </v>
   <v>       0.00500000 </v>
   <v>       0.00500000 </v>
   <v>       0.00500000 </v>
   <v>       0.00500000 </v>
   <v>       0.00500000 </v>
   <v>       0.00500000 </v>
   <v>       0.00500000 </v>
   <v>       0.00500000 </v>
   <v>       0.00500000 </v>
   <v>       0.00500000 </v>
   <v>       0.00500000 </v>
   <v>       0.00500000 </v>
   <v>       0.00500000 </v>
   <v>       0.00500000 </v>
   <v>       0.00500000 </v>
   <v>       0.00500000 </v>
   <v>       0.00500000 </v>
   <v>       0.00500000 </v>
   <v>       0.00500000 </v>
   <v>       0.00500000 </v>
   <v>       0.00500000 </v>
   <v>       0.00500000 </v>
   <v>       0.00500000 </v>
   <v>       0.00500000 </v>
   <v>       0.00500000 </v>
   <v>       0.00500000 </v>
   <v>       0.00500000 </v>
   <v>       0.00500000 </v>
   <v>       0.00500000 </v>
   <v>       0.00500000 </v>
   <v>       0.00500000 </v>
   <v>       0.00500000 </v>
   <v>       0.00500000 </v>
   <v>       0.00500000 </v>
   <v>       0.00500000 </v>
   <v>       0.00500000 </v>
   <v>       0.00500000 </v>
   <v>       0.00500000 </v>
   <v>       0.00500000 </v>
   <v>       0.00500000 </v>
   <v>       0.00500000 </v>
   <v>       0.00500000 </v>
   <v>       0.00500000 </v>
   <v>       0.00500000 </v>
   <v>       0.00500000 </v>
   <v>       0.00500000 </v>
   <v>       0.00500000 </v>
   <v>       0.00500000 </v>
   <v>       0.00500000 </v>
   <v>       0.00500000 </v>
   <v>       0.00500000 </v>
   <v>       0.00500000 </v>
   <v>       0.00500000 </v>
   <v>       0.00500000 </v>
   <v>       0.00500000 </v>
   <v>       0.00500000 </v>
   <v>       0.00500000 </v>
   <v>       0.00500000 </v>
   <v>       0.00500000 </v>
   <v>       0.00500000 </v>
   <v>       0.00500000 </v>
   <v>       0.00500000 </v>
   <v>       0.00500000 </v>
   <v>       0.00500000 </v>
   <v>       0.00500000 </v>
   <v>       0.00500000 </v>
   <v>       0.00500000 </v>
   <v>       0.00500000 </v>
   <v>       0.00500000 </v>
   <v>       0.00500000 </v>
   <v>       0.00500000 </v>
   <v>       0.00500000 </v>
   <v>       0.00500000 </v>
   <v>       0.00500000 </v>
   <v>       0.00500000 </v>
   <v>       0.00500000 </v>
   <v>       0.00500000 </v>
   <v>       0.00500000 </v>
   <v>       0.00500000 </v>
   <v>       0.00500000 </v>
   <v>       0.00500000 </v>
   <v>       0.00500000 </v>
   <v>       0.00500000 </v>
   <v>       0.00500000 </v>
   <v>       0.00500000 </v>
   <v>       0.00500000 </v>
   <v>       0.00500000 </v>
   <v>       0.00500000 </v>
   <v>       0.00500000 </v>
   <v>       0.00500000 </v>
   <v>       0.00500000 </v>
   <v>       0.00500000 </v>
   <v>       0.00500000 </v>
   <v>       0.00500000 </v>
   <v>       0.00500000 </v>
   <v>       0.00500000 </v>
   <v>       0.00500000 </v>
   <v>       0.00500000 </v>
   <v>       0.00500000 </v>
   <v>       0.00500000 </v>
   <v>       0.00500000 </v>
   <v>       0.00500000 </v>
   <v>       0.00500000 </v>
   <v>       0.00500000 </v>
   <v>       0.00500000 </v>
   <v>       0.00500000 </v>
   <v>       0.00500000 </v>
   <v>       0.00500000 </v>
   <v>       0.00500000 </v>
   <v>       0.00500000 </v>
   <v>       0.00500000 </v>
   <v>       0.00500000 </v>
   <v>       0.00500000 </v>
   <v>       0.00500000 </v>
   <v>       0.00500000 </v>
   <v>       0.00500000 </v>
   <v>       0.00500000 </v>
   <v>       0.00500000 </v>
   <v>       0.00500000 </v>
   <v>       0.00500000 </v>
   <v>       0.00500000 </v>
   <v>       0.00500000 </v>
   <v>       0.00500000 </v>
   <v>       0.00500000 </v>
   <v>       0.00500000 </v>
   <v>       0.00500000 </v>
   <v>       0.00500000 </v>
   <v>       0.00500000 </v>
   <v>       0.00500000 </v>
   <v>       0.00500000 </v>
   <v>       0.00500000 </v>
   <v>       0.00500000 </v>
   <v>       0.00500000 </v>
   <v>       0.00500000 </v>
   <v>       0.00500000 </v>
   <v>       0.00500000 </v>
   <v>       0.00500000 </v>
   <v>       0.00500000 </v>
   <v>       0.00500000 </v>
   <v>       0.00500000 </v>
   <v>       0.00500000 </v>
   <v>       0.00500000 </v>
   <v>       0.00500000 </v>
   <v>       0.00500000 </v>
   <v>       0.00500000 </v>
   <v>       0.00500000 </v>
   <v>       0.00500000 </v>
   <v>       0.00500000 </v>
   <v>       0.00500000 </v>
   <v>       0.00500000 </v>
   <v>       0.00500000 </v>
  </varray>
 </kpoints>
 <parameters>
  <separator name="general" >
   <i type="string" name="SYSTEM">unknown system</i>
   <i type="logical" name="LCOMPAT"> F  </i>
  </separator>
  <separator name="electronic" >
   <i type="string" name="PREC">accura</i>
   <i name="ENMAX">    500.00000000</i>
   <i name="ENAUG">    322.06900000</i>
   <i name="EDIFF">      0.00001000</i>
   <i type="int" name="IALGO">    38</i>
   <i type="int" name="IWAVPR">    10</i>
   <i type="int" name="NBANDS">     8</i>
   <i name="NELECT">      8.00000000</i>
   <i type="int" name="TURBO">     0</i>
   <i type="int" name="IRESTART">     0</i>
   <i type="int" name="NREBOOT">     0</i>
   <i type="int" name="NMIN">     0</i>
   <i name="EREF">      0.00000000</i>
   <separator name="electronic smearing" >
    <i type="int" name="ISMEAR">     0</i>
    <i name="SIGMA">      0.10000000</i>
    <i name="KSPACING">      0.50000000</i>
    <i type="logical" name="KGAMMA"> T  </i>
   </separator>
   <separator name="electronic projectors" >
    <i type="logical" name="LREAL"> F  </i>
    <v name="ROPT">      0.00000000</v>
    <i type="int" name="LMAXPAW">  -100</i>
    <i type="int" name="LMAXMIX">     2</i>
    <i type="logical" name="NLSPLINE"> F  </i>
   </separator>
   <separator name="electronic startup" >
    <i type="int" name="ISTART">     0</i>
    <i type="int" name="ICHARG">    11</i>
    <i type="int" name="INIWAV">     1</i>
   </separator>
   <separator name="electronic spin" >
    <i type="int" name="ISPIN">     1</i>
    <i type="logical" name="LNONCOLLINEAR"> F  </i>
    <v name="MAGMOM">      1.00000000      1.00000000</v>
    <i name="NUPDOWN">     -1.00000000</i>
    <i type="logical" name="LSORBIT"> F  </i>
    <v name="SAXIS">      0.00000000      0.00000000      1.00000000</v>
    <i type="logical" name="LSPIRAL"> F  </i>
    <v name="QSPIRAL">      0.00000000      0.00000000      0.00000000</v>
    <i type="logical" name="LZEROZ"> F  </i>
   </separator>
   <separator name="electronic exchange-correlation" >
    <i type="logical" name="LASPH"> T  </i>
    <i type="logical" name="LMETAGGA"> F  </i>
   </separator>
   <separator name="electronic convergence" >
    <i type="int" name="NELM">    60</i>
    <i type="int" name="NELMDL">    -5</i>
    <i type="int" name="NELMIN">    10</i>
    <i name="ENINI">    500.00000000</i>
    <separator name="electronic convergence detail" >
     <i type="logical" name="LDIAG"> T  </i>
     <i type="logical" name="LSUBROT"> F  </i>
     <i name="WEIMIN">      0.00000000</i>
     <i name="EBREAK">      0.00000031</i>
     <i name="DEPER">      0.30000000</i>
     <i type="int" name="NRMM">     4</i>
     <i name="TIME">      0.40000000</i>
    </separator>
   </separator>
   <separator name="electronic mixer" >
    <i name="AMIX">      0.40000000</i>
    <i name="BMIX">      1.00000000</i>
    <i name="AMIN">      0.10000000</i>
    <i name="AMIX_MAG">      1.60000000</i>
    <i name="BMIX_MAG">      1.00000000</i>
    <separator name="electronic mixer details" >
     <i type="int" name="IMIX">     4</i>
     <i type="int" name="MAXMIX">   -45</i>
     <i name="WC">    100.00000000</i>
     <i type="int" name="INIMIX">     1</i>
     <i type="int" name="MIXPRE">     1</i>
     <i type="int" name="MREMOVE">     5</i>
    </separator>
   </separator>
   <separator name="electronic dipolcorrection" >
    <i type="logical" name="LDIPOL"> F  </i>
    <i type="logical" name="LMONO"> F  </i>
    <i type="int" name="IDIPOL">     0</i>
    <i name="EPSILON">      1.00000000</i>
    <v name="DIPOL">   -100.00000000   -100.00000000   -100.00000000</v>
    <i name="EFIELD">      0.00000000</i>
   </separator>
  </separator>
  <separator name="grids" >
   <i type="int" name="NGX">    28</i>
   <i type="int" name="NGY">    28</i>
   <i type="int" name="NGZ">    28</i>
   <i type="int" name="NGXF">    56</i>
   <i type="int" name="NGYF">    56</i>
   <i type="int" name="NGZF">    56</i>
   <i type="logical" name="ADDGRID"> T  </i>
  </separator>
  <separator name="ionic" >
   <i type="int" name="NSW">     0</i>
   <i type="int" name="IBRION">    -1</i>
   <i type="int" name="ISIF">     2</i>
   <i name="PSTRESS">      0.00000000</i>
   <i name="EDIFFG">      0.00010000</i>
   <i type="int" name="NFREE">     0</i>
   <i name="POTIM">      0.50000000</i>
   <i name="SMASS">     -3.00000000</i>
   <i name="SCALEE">      1.00000000</i>
  </separator>
  <separator name="ionic md" >
   <i name="TEBEG">      0.00010000</i>
   <i name="TEEND">      0.00010000</i>
   <i type="int" name="NBLOCK">     1</i>
   <i type="int" name="KBLOCK">     1</i>
   <i type="int" name="NPACO">   256</i>
   <i name="APACO">     16.00000000</i>
  </separator>
  <separator name="symmetry" >
   <i type="int" name="ISYM">     2</i>
   <i name="SYMPREC">      0.00001000</i>
  </separator>
  <separator name="dos" >
   <i type="logical" name="LORBIT"> F  </i>
   <v name="RWIGS">     -1.00000000</v>
   <i type="int" name="NEDOS">   301</i>
   <i name="EMIN">     10.00000000</i>
   <i name="EMAX">    -10.00000000</i>
   <i name="EFERMI">      0.00000000</i>
  </separator>
  <separator name="writing" >
   <i type="int" name="NWRITE">     2</i>
   <i type="logical" name="LWAVE"> F  </i>
   <i type="logical" name="LCHARG"> F  </i>
   <i type="logical" name="LPARD"> F  </i>
   <i type="logical" name="LVTOT"> F  </i>
   <i type="logical" name="LVHAR"> F  </i>
   <i type="logical" name="LELF"> F  </i>
   <i type="logical" name="LOPTICS"> F  </i>
   <v name="STM">      0.00000000      0.00000000      0.00000000      0.00000000      0.00000000      0.00000000      0.00000000</v>
  </separator>
  <separator name="performance" >
   <i type="int" name="NPAR">     8</i>
   <i type="int" name="NSIM">     4</i>
   <i type="int" name="NBLK">    -1</i>
   <i type="logical" name="LPLANE"> T  </i>
   <i type="logical" name="LSCALAPACK"> T  </i>
   <i type="logical" name="LSCAAWARE"> F  </i>
   <i type="logical" name="LSCALU"> F  </i>
   <i type="logical" name="LASYNC"> F  </i>
   <i type="logical" name="LORBITALREAL"> F  </i>
  </separator>
  <separator name="miscellaneous" >
   <i type="int" name="IDIOT">     3</i>
   <i type="logical" name="LMUSIC"> F  </i>
   <v name="POMASS">     28.08500000</v>
   <v name="DARWINR">      0.00000000</v>
   <v name="DARWINV">      1.00000000</v>
   <i type="logical" name="LCORR"> T  </i>
  </separator>
  <i type="logical" name="GGA_COMPAT"> T  </i>
  <i type="logical" name="LBERRY"> F  </i>
  <i type="int" name="ICORELEVEL">     0</i>
  <i type="logical" name="LDAU"> F  </i>
  <i type="int" name="I_CONSTRAINED_M">     0</i>
  <separator name="electronic exchange-correlation" >
   <i type="string" name="GGA">--</i>
   <i type="int" name="VOSKOWN">     0</i>
   <i type="logical" name="LHFCALC"> F  </i>
   <i type="string" name="PRECFOCK"></i>
   <i type="logical" name="LSYMGRAD"> F  </i>
   <i type="logical" name="LHFONE"> F  </i>
   <i type="logical" name="LRHFCALC"> F  </i>
   <i type="logical" name="LTHOMAS"> F  </i>
   <i type="logical" name="LMODELHF"> F  </i>
   <i name="ENCUT4O">     -1.00000000</i>
   <i type="int" name="EXXOEP">     0</i>
   <i type="int" name="FOURORBIT">     0</i>
   <i name="AEXX">      0.00000000</i>
   <i name="HFALPHA">      0.00000000</i>
   <i name="MCALPHA">      0.00000000</i>
   <i name="ALDAX">      1.00000000</i>
   <i name="AGGAX">      1.00000000</i>
   <i name="ALDAC">      1.00000000</i>
   <i name="AGGAC">      1.00000000</i>
   <i type="int" name="NKREDX">     1</i>
   <i type="int" name="NKREDY">     1</i>
   <i type="int" name="NKREDZ">     1</i>
   <i type="logical" name="SHIFTRED"> F  </i>
   <i type="logical" name="ODDONLY"> F  </i>
   <i type="logical" name="EVENONLY"> F  </i>
   <i type="int" name="LMAXFOCK">     0</i>
   <i type="int" name="NMAXFOCKAE">     0</i>
   <i type="logical" name="LFOCKAEDFT"> F  </i>
   <i name="HFSCREEN">      0.00000000</i>
   <i name="HFSCREENC">      0.00000000</i>
   <i type="int" name="NBANDSGWLOW">     0</i>
  </separator>
  <separator name="vdW DFT" >
   <i type="logical" name="LUSE_VDW"> F  </i>
   <i name="Zab_VDW">     -0.84910000</i>
   <i name="PARAM1">      0.12340000</i>
   <i name="PARAM2">      1.00000000</i>
   <i name="PARAM3">      0.00000000</i>
  </separator>
  <separator name="model GW" >
   <i type="int" name="MODEL_GW">     0</i>
   <i name="MODEL_EPS0">     12.26462184</i>
   <i name="MODEL_ALPHA">      1.00000000</i>
  </separator>
  <separator name="linear response parameters" >
   <i type="logical" name="LEPSILON"> F  </i>
   <i type="logical" name="LRPA"> F  </i>
   <i type="logical" name="LNABLA"> F  </i>
   <i type="logical" name="LVEL"> F  </i>
   <i type="int" name="KINTER">     0</i>
   <i name="CSHIFT">      0.10000000</i>
   <i name="OMEGAMAX">     -1.00000000</i>
   <i name="DEG_THRESHOLD">      0.00200000</i>
  </separator>
  <separator name="orbital magnetization" >
   <i type="logical" name="NUCIND"> F  </i>
   <v name="MAGPOS">      0.00000000      0.00000000      0.00000000</v>
   <i type="logical" name="LNICSALL"> T  </i>
   <i type="logical" name="ORBITALMAG"> F  </i>
   <i type="logical" name="LMAGBLOCH"> F  </i>
   <i type="logical" name="LCHIMAG"> F  </i>
   <i type="logical" name="LGAUGE"> T  </i>
   <i type="int" name="MAGATOM">     0</i>
   <v name="MAGDIPOL">      0.00000000      0.00000000      0.00000000</v>
   <v name="AVECCONST">      0.00000000      0.00000000      0.00000000</v>
  </separator>
  <separator name="response functions" >
   <i type="logical" name="LADDER"> F  </i>
   <i type="logical" name="LFXC"> F  </i>
   <i type="logical" name="LHARTREE"> T  </i>
   <i type="int" name="IBSE">     0</i>
   <i type="logical" name="LTCTE"> F  </i>
   <i type="logical" name="LTETE"> F  </i>
   <i type="logical" name="LTRIPLET"> F  </i>
   <i type="logical" name="LFXCEPS"> F  </i>
   <i type="logical" name="LFXHEG"> F  </i>
   <i type="logical" name="L2ORDER"> F  </i>
   <i type="logical" name="LUSEW"> F  </i>
   <i name="ENCUTGW">     -2.00000000</i>
   <i name="ENCUTGWSOFT">     -2.00000000</i>
   <i name="ENCUTLF">     -1.00000000</i>
   <i type="int" name="LMAXMP2">    -1</i>
   <i name="SCISSOR">      0.00000000</i>
   <i type="int" name="NOMEGA">     0</i>
   <i type="int" name="NOMEGAR">     0</i>
   <i type="int" name="NBANDSGW">    -1</i>
   <i type="int" name="NBANDSO">    -1</i>
   <i type="int" name="NBANDSV">    -1</i>
   <i type="int" name="NELM">     1</i>
   <i type="int" name="DIM">     3</i>
   <i type="int" name="ANTIRES">     0</i>
   <i name="OMEGAMAX">    -30.00000000</i>
   <i name="OMEGAMIN">    -30.00000000</i>
   <i name="OMEGATL">   -200.00000000</i>
   <i type="int" name="OMEGAGRID">     0</i>
   <i name="CSHIFT">     -0.10000000</i>
   <i type="logical" name="SELFENERGY"> F  </i>
   <i type="logical" name="LSPECTRAL"> F  </i>
   <i type="logical" name="ODDONLYGW"> F  </i>
   <i type="logical" name="EVENONLYGW"> F  </i>
   <i type="int" name="NKREDLFX">     1</i>
   <i type="int" name="NKREDLFY">     1</i>
   <i type="int" name="NKREDLFZ">     1</i>
   <i type="int" name="MAXMEM">  1800</i>
   <i type="int" name="TELESCOPE">     0</i>
   <i type="int" name="TAUPAR">     1</i>
  </separator>
  <separator name="External order field" >
   <i name="OFIELD_KAPPA">      0.00000000</i>
   <v name="OFIELD_K">      0.00000000      0.00000000      0.00000000</v>
   <i name="OFIELD_Q6_NEAR">      0.00000000</i>
   <i name="OFIELD_Q6_FAR">      0.00000000</i>
   <i name="OFIELD_A">      0.00000000</i>
  </separator>
 </parameters>
 <atominfo>
  <atoms>       2 </atoms>
  <types>       1 </types>
  <array name="atoms" >
   <dimension dim="1">ion</dimension>
   <field type="string">element</field>
   <field type="int">atomtype</field>
   <set>
    <rc><c>Si</c><c>   1</c></rc>
    <rc><c>Si</c><c>   1</c></rc>
   </set>
  </array>
  <array name="atomtypes" >
   <dimension dim="1">type</dimension>
   <field type="int">atomspertype</field>
   <field type="string">element</field>
   <field>mass</field>
   <field>valence</field>
   <field type="string">pseudopotential</field>
   <set>
    <rc><c>   2</c><c>Si</c><c>     28.08500000</c><c>      4.00000000</c><c>  PAW_PBE Si 05Jan2001                  </c></rc>
   </set>
  </array>
 </atominfo>
 <structure name="initialpos" >
  <crystal>
   <varray name="basis" >
    <v>       2.73422534       2.73422534       0.00000000 </v>
    <v>       0.00000000       2.73422534       2.73422534 </v>
    <v>       2.73422534       0.00000000       2.73422534 </v>
   </varray>
   <i name="volume">     40.88207282 </i>
   <varray name="rec_basis" >
    <v>       0.18286715       0.18286715      -0.18286715 </v>
    <v>      -0.18286715       0.18286715       0.18286715 </v>
    <v>       0.18286715      -0.18286715       0.18286715 </v>
   </varray>
  </crystal>
  <varray name="positions" >
   <v>       0.00000000       0.00000000       0.00000000 </v>
   <v>       0.25000000       0.25000000       0.25000000 </v>
  </varray>
 </structure>
 <calculation>
  <scstep>
   <time name="dav">    0.87    0.87</time>
   <time name="total">    1.02    1.27</time>
   <energy>
    <i name="alphaZ">      3.29368141 </i>
    <i name="ewald">   -226.95641104 </i>
    <i name="hartreedc">    -15.16987530 </i>
    <i name="XCdc">    -18.05968195 </i>
    <i name="pawpsdc">    830.13003807 </i>
    <i name="pawaedc">   -795.14899780 </i>
    <i name="eentropy">     -0.00333117 </i>
    <i name="bandstr">     21.30747723 </i>
    <i name="atom">    206.13251344 </i>
    <i name="e_fr_energy">      5.52541288 </i>
    <i name="e_wo_entrp">      5.52874405 </i>
    <i name="e_0_energy">      5.52707847 </i>
   </energy>
  </scstep>
  <scstep>
   <time name="dav">    1.23    1.24</time>
   <time name="total">    1.24    1.37</time>
   <energy>
    <i name="e_fr_energy">    -10.79788043 </i>
    <i name="e_wo_entrp">    -10.79787924 </i>
    <i name="e_0_energy">    -10.79787983 </i>
   </energy>
  </scstep>
  <scstep>
   <time name="dav">    1.09    1.09</time>
   <time name="total">    1.09    1.42</time>
   <energy>
    <i name="e_fr_energy">    -11.03202705 </i>
    <i name="e_wo_entrp">    -11.03202682 </i>
    <i name="e_0_energy">    -11.03202693 </i>
   </energy>
  </scstep>
  <scstep>
   <time name="dav">    1.35    1.35</time>
   <time name="total">    1.35    1.55</time>
   <energy>
    <i name="e_fr_energy">    -11.03311784 </i>
    <i name="e_wo_entrp">    -11.03311761 </i>
    <i name="e_0_energy">    -11.03311772 </i>
   </energy>
  </scstep>
  <scstep>
   <time name="dav">    1.12    1.12</time>
   <time name="total">    1.12    1.30</time>
   <energy>
    <i name="e_fr_energy">    -11.03311955 </i>
    <i name="e_wo_entrp">    -11.03311932 </i>
    <i name="e_0_energy">    -11.03311944 </i>
   </energy>
  </scstep>
  <scstep>
   <time name="dav">    1.31    1.31</time>
   <time name="total">    1.31    1.59</time>
   <energy>
    <i name="e_fr_energy">    -11.03311957 </i>
    <i name="e_wo_entrp">    -11.03311934 </i>
    <i name="e_0_energy">    -11.03311945 </i>
   </energy>
  </scstep>
  <scstep>
   <time name="dav">    1.00    1.00</time>
   <time name="total">    1.00    1.20</time>
   <energy>
    <i name="e_fr_energy">    -11.03311957 </i>
    <i name="e_wo_entrp">    -11.03311934 </i>
    <i name="e_0_energy">    -11.03311946 </i>
   </energy>
  </scstep>
  <scstep>
   <time name="dav">    0.92    0.92</time>
   <time name="total">    0.92    1.11</time>
   <energy>
    <i name="e_fr_energy">    -11.03311957 </i>
    <i name="e_wo_entrp">    -11.03311934 </i>
    <i name="e_0_energy">    -11.03311946 </i>
   </energy>
  </scstep>
  <scstep>
   <time name="dav">    0.80    0.80</time>
   <time name="total">    0.80    1.09</time>
   <energy>
    <i name="e_fr_energy">    -11.03311957 </i>
    <i name="e_wo_entrp">    -11.03311934 </i>
    <i name="e_0_energy">    -11.03311946 </i>
   </energy>
  </scstep>
  <scstep>
   <time name="dav">    0.80    0.80</time>
   <time name="total">    0.80    0.99</time>
   <energy>
    <i name="alphaZ">      3.29368141 </i>
    <i name="ewald">   -226.95641104 </i>
    <i name="hartreedc">    -15.16987530 </i>
    <i name="XCdc">    -18.05968195 </i>
    <i name="pawpsdc">    830.13003807 </i>
    <i name="pawaedc">   -795.14899780 </i>
    <i name="eentropy">     -0.00000023 </i>
    <i name="bandstr">      4.74561384 </i>
    <i name="atom">    206.13251344 </i>
    <i name="e_fr_energy">    -11.03311957 </i>
    <i name="e_wo_entrp">    -11.03311934 </i>
    <i name="e_0_energy">    -11.03311946 </i>
   </energy>
  </scstep>
  <structure>
   <crystal>
    <varray name="basis" >
     <v>       2.73422534       2.73422534       0.00000000 </v>
     <v>       0.00000000       2.73422534       2.73422534 </v>
     <v>       2.73422534       0.00000000       2.73422534 </v>
    </varray>
    <i name="volume">     40.88207282 </i>
    <varray name="rec_basis" >
     <v>       0.18286715       0.18286715      -0.18286715 </v>
     <v>      -0.18286715       0.18286715       0.18286715 </v>
     <v>       0.18286715      -0.18286715       0.18286715 </v>
    </varray>
   </crystal>
   <varray name="positions" >
    <v>       0.00000000       0.00000000       0.00000000 </v>
    <v>       0.25000000       0.25000000       0.25000000 </v>
   </varray>
  </structure>
  <varray name="forces" >
   <v>       0.00000000       0.00000000       0.00000000 </v>
   <v>       0.00000000       0.00000000       0.00000000 </v>
  </varray>
  <varray name="stress" >
   <v>      -8.62435288       0.00000000       0.00000000 </v>
   <v>       0.00000000      -8.62435288       0.00000000 </v>
   <v>       0.00000000       0.00000000      -8.62435288 </v>
  </varray>
  <energy>
   <i name="e_fr_energy">    -11.03311957 </i>
   <i name="e_wo_entrp">    -11.03311946 </i>
   <i name="e_0_energy">     -0.00000023 </i>
  </energy>
  <time name="totalsc">   12.55   15.49</time>
  <eigenvalues>
   <array>
    <dimension dim="1">band</dimension>
    <dimension dim="2">kpoint</dimension>
    <dimension dim="3">spin</dimension>
    <field>eigene</field>
    <field>occ</field>
    <set>
     <set comment="spin 1">
      <set comment="kpoint 1">
       <r>   -6.1982    1.0000 </r>
       <r>    5.6174    1.0000 </r>
       <r>    5.6174    1.0000 </r>
       <r>    5.6174    1.0000 </r>
       <r>    8.1745    0.0000 </r>
       <r>    8.1745    0.0000 </r>
       <r>    8.1745    0.0000 </r>
       <r>    8.7530    0.0000 </r>
      </set>
      <set comment="kpoint 2">
       <r>   -6.1863    1.0000 </r>
       <r>    5.5322    1.0000 </r>
       <r>    5.5671    1.0000 </r>
       <r>    5.5671    1.0000 </r>
       <r>    8.1450    0.0000 </r>
       <r>    8.2395    0.0000 </r>
       <r>    8.2395    0.0000 </r>
       <r>    8.8365    0.0000 </r>
      </set>
      <set comment="kpoint 3">
       <r>   -6.1506    1.0000 </r>
       <r>    5.3005    1.0000 </r>
       <r>    5.4300    1.0000 </r>
       <r>    5.4300    1.0000 </r>
       <r>    8.0603    0.0000 </r>
       <r>    8.4206    0.0000 </r>
       <r>    8.4206    0.0000 </r>
       <r>    9.0591    0.0000 </r>
      </set>
      <set comment="kpoint 4">
       <r>   -6.0911    1.0000 </r>
       <r>    4.9701    1.0000 </r>
       <r>    5.2351    1.0000 </r>
       <r>    5.2351    1.0000 </r>
       <r>    7.9305    0.0000 </r>
       <r>    8.6885    0.0000 </r>
       <r>    8.6885    0.0000 </r>
       <r>    9.3596    0.0000 </r>
      </set>
      <set comment="kpoint 5">
       <r>   -6.0079    1.0000 </r>
       <r>    4.5807    1.0000 </r>
       <r>    5.0092    1.0000 </r>
       <r>    5.0092    1.0000 </r>
       <r>    7.7683    0.0000 </r>
       <r>    9.0162    0.0000 </r>
       <r>    9.0162    0.0000 </r>
       <r>    9.6648    0.0000 </r>
      </set>
      <set comment="kpoint 6">
       <r>   -5.9013    1.0000 </r>
       <r>    4.1573    1.0000 </r>
       <r>    4.7708    1.0000 </r>
       <r>    4.7708    1.0000 </r>
       <r>    7.5865    0.0000 </r>
       <r>    9.3847    0.0000 </r>
       <r>    9.3847    0.0000 </r>
       <r>    9.8766    0.0000 </r>
      </set>
      <set comment="kpoint 7">
       <r>   -5.7712    1.0000 </r>
       <r>    3.7141    1.0000 </r>
       <r>    4.5313    1.0000 </r>
       <r>    4.5313    1.0000 </r>
       <r>    7.3959    0.0000 </r>
       <r>    9.7820    0.0000 </r>
       <r>    9.7820    0.0000 </r>
       <r>    9.8809    0.0000 </r>
      </set>
      <set comment="kpoint 8">
       <r>   -5.6180    1.0000 </r>
       <r>    3.2593    1.0000 </r>
       <r>    4.2980    1.0000 </r>
       <r>    4.2980    1.0000 </r>
       <r>    7.2053    0.0000 </r>
       <r>    9.6654    0.0000 </r>
       <r>   10.2002    0.0000 </r>
       <r>   10.2002    0.0000 </r>
      </set>
      <set comment="kpoint 9">
       <r>   -5.4419    1.0000 </r>
       <r>    2.7977    1.0000 </r>
       <r>    4.0755    1.0000 </r>
       <r>    4.0755    1.0000 </r>
       <r>    7.0214    0.0000 </r>
       <r>    9.3273    0.0000 </r>
       <r>   10.6342    0.0000 </r>
       <r>   10.6342    0.0000 </r>
      </set>
      <set comment="kpoint 10">
       <r>   -5.2432    1.0000 </r>
       <r>    2.3325    1.0000 </r>
       <r>    3.8670    1.0000 </r>
       <r>    3.8670    1.0000 </r>
       <r>    6.8493    0.0000 </r>
       <r>    8.9465    0.0000 </r>
       <r>   11.0806    0.0000 </r>
       <r>   11.0806    0.0000 </r>
      </set>
      <set comment="kpoint 11">
       <r>   -5.0223    1.0000 </r>
       <r>    1.8658    1.0000 </r>
       <r>    3.6746    1.0000 </r>
       <r>    3.6746    1.0000 </r>
       <r>    6.6931    0.0000 </r>
       <r>    8.5626    0.0000 </r>
       <r>   11.5369    0.0000 </r>
       <r>   11.5369    0.0000 </r>
      </set>
      <set comment="kpoint 12">
       <r>   -4.7797    1.0000 </r>
       <r>    1.3994    1.0000 </r>
       <r>    3.4997    1.0000 </r>
       <r>    3.4997    1.0000 </r>
       <r>    6.5559    0.0000 </r>
       <r>    8.1944    0.0000 </r>
       <r>   12.0015    0.0000 </r>
       <r>   12.0015    0.0000 </r>
      </set>
      <set comment="kpoint 13">
       <r>   -4.5157    1.0000 </r>
       <r>    0.9350    1.0000 </r>
       <r>    3.3436    1.0000 </r>
       <r>    3.3436    1.0000 </r>
       <r>    6.4401    0.0000 </r>
       <r>    7.8512    0.0000 </r>
       <r>   12.4731    0.0000 </r>
       <r>   12.4731    0.0000 </r>
      </set>
      <set comment="kpoint 14">
       <r>   -4.2310    1.0000 </r>
       <r>    0.4740    1.0000 </r>
       <r>    3.2069    1.0000 </r>
       <r>    3.2069    1.0000 </r>
       <r>    6.3477    0.0000 </r>
       <r>    7.5383    0.0000 </r>
       <r>   12.9510    0.0000 </r>
       <r>   12.9510    0.0000 </r>
      </set>
      <set comment="kpoint 15">
       <r>   -3.9261    1.0000 </r>
       <r>    0.0182    1.0000 </r>
       <r>    3.0905    1.0000 </r>
       <r>    3.0905    1.0000 </r>
       <r>    6.2805    0.0000 </r>
       <r>    7.2581    0.0000 </r>
       <r>   13.4341    0.0000 </r>
       <r>   13.4341    0.0000 </r>
      </set>
      <set comment="kpoint 16">
       <r>   -3.6019    1.0000 </r>
       <r>   -0.4310    1.0000 </r>
       <r>    2.9946    1.0000 </r>
       <r>    2.9946    1.0000 </r>
       <r>    6.2400    0.0000 </r>
       <r>    7.0119    0.0000 </r>
       <r>   13.9212    0.0000 </r>
       <r>   13.9212    0.0000 </r>
      </set>
      <set comment="kpoint 17">
       <r>   -3.2592    1.0000 </r>
       <r>   -0.8719    1.0000 </r>
       <r>    2.9197    1.0000 </r>
       <r>    2.9197    1.0000 </r>
       <r>    6.2274    0.0000 </r>
       <r>    6.8002    0.0000 </r>
       <r>   14.4089    0.0000 </r>
       <r>   14.4089    0.0000 </r>
      </set>
      <set comment="kpoint 18">
       <r>   -2.8987    1.0000 </r>
       <r>   -1.3029    1.0000 </r>
       <r>    2.8661    1.0000 </r>
       <r>    2.8661    1.0000 </r>
       <r>    6.2440    0.0000 </r>
       <r>    6.6229    0.0000 </r>
       <r>   14.8883    0.0000 </r>
       <r>   14.8883    0.0000 </r>
      </set>
      <set comment="kpoint 19">
       <r>   -2.5217    1.0000 </r>
       <r>   -1.7225    1.0000 </r>
       <r>    2.8338    1.0000 </r>
       <r>    2.8338    1.0000 </r>
       <r>    6.2908    0.0000 </r>
       <r>    6.4793    0.0000 </r>
       <r>   15.3254    0.0000 </r>
       <r>   15.3254    0.0000 </r>
      </set>
      <set comment="kpoint 20">
       <r>   -2.1292    1.0000 </r>
       <r>   -2.1292    1.0000 </r>
       <r>    2.8230    1.0000 </r>
       <r>    2.8230    1.0000 </r>
       <r>    6.3689    0.0000 </r>
       <r>    6.3689    0.0000 </r>
       <r>   15.5553    0.0000 </r>
       <r>   15.5554    0.0000 </r>
      </set>
      <set comment="kpoint 21">
       <r>   -2.1292    1.0000 </r>
       <r>   -2.1292    1.0000 </r>
       <r>    2.8230    1.0000 </r>
       <r>    2.8230    1.0000 </r>
       <r>    6.3689    0.0000 </r>
       <r>    6.3689    0.0000 </r>
       <r>   15.5553    0.0000 </r>
       <r>   15.5553    0.0000 </r>
      </set>
      <set comment="kpoint 22">
       <r>   -2.1283    1.0000 </r>
       <r>   -2.1283    1.0000 </r>
       <r>    2.8141    1.0000 </r>
       <r>    2.8141    1.0000 </r>
       <r>    6.3854    0.0000 </r>
       <r>    6.3854    0.0000 </r>
       <r>   15.5293    0.0000 </r>
       <r>   15.5293    0.0000 </r>
      </set>
      <set comment="kpoint 23">
       <r>   -2.1254    1.0000 </r>
       <r>   -2.1254    1.0000 </r>
       <r>    2.7879    1.0000 </r>
       <r>    2.7879    1.0000 </r>
       <r>    6.4343    0.0000 </r>
       <r>    6.4343    0.0000 </r>
       <r>   15.4459    0.0000 </r>
       <r>   15.4459    0.0000 </r>
      </set>
      <set comment="kpoint 24">
       <r>   -2.1206    1.0000 </r>
       <r>   -2.1206    1.0000 </r>
       <r>    2.7460    1.0000 </r>
       <r>    2.7460    1.0000 </r>
       <r>    6.5140    0.0000 </r>
       <r>    6.5140    0.0000 </r>
       <r>   15.2959    0.0000 </r>
       <r>   15.2959    0.0000 </r>
      </set>
      <set comment="kpoint 25">
       <r>   -2.1142    1.0000 </r>
       <r>   -2.1142    1.0000 </r>
       <r>    2.6910    1.0000 </r>
       <r>    2.6910    1.0000 </r>
       <r>    6.6221    0.0000 </r>
       <r>    6.6221    0.0000 </r>
       <r>   15.0808    0.0000 </r>
       <r>   15.0808    0.0000 </r>
      </set>
      <set comment="kpoint 26">
       <r>   -2.1061    1.0000 </r>
       <r>   -2.1061    1.0000 </r>
       <r>    2.6256    1.0000 </r>
       <r>    2.6256    1.0000 </r>
       <r>    6.7558    0.0000 </r>
       <r>    6.7558    0.0000 </r>
       <r>   14.8156    0.0000 </r>
       <r>   14.8156    0.0000 </r>
      </set>
      <set comment="kpoint 27">
       <r>   -2.0966    1.0000 </r>
       <r>   -2.0966    1.0000 </r>
       <r>    2.5528    1.0000 </r>
       <r>    2.5528    1.0000 </r>
       <r>    6.9123    0.0000 </r>
       <r>    6.9123    0.0000 </r>
       <r>   14.5180    0.0000 </r>
       <r>   14.5180    0.0000 </r>
      </set>
      <set comment="kpoint 28">
       <r>   -2.0858    1.0000 </r>
       <r>   -2.0858    1.0000 </r>
       <r>    2.4754    1.0000 </r>
       <r>    2.4754    1.0000 </r>
       <r>    7.0890    0.0000 </r>
       <r>    7.0890    0.0000 </r>
       <r>   14.2010    0.0000 </r>
       <r>   14.2010    0.0000 </r>
      </set>
      <set comment="kpoint 29">
       <r>   -2.0741    1.0000 </r>
       <r>   -2.0741    1.0000 </r>
       <r>    2.3960    1.0000 </r>
       <r>    2.3960    1.0000 </r>
       <r>    7.2834    0.0000 </r>
       <r>    7.2834    0.0000 </r>
       <r>   13.8729    0.0000 </r>
       <r>   13.8729    0.0000 </r>
      </set>
      <set comment="kpoint 30">
       <r>   -2.0618    1.0000 </r>
       <r>   -2.0618    1.0000 </r>
       <r>    2.3167    1.0000 </r>
       <r>    2.3167    1.0000 </r>
       <r>    7.4934    0.0000 </r>
       <r>    7.4934    0.0000 </r>
       <r>   13.5387    0.0000 </r>
       <r>   13.5387    0.0000 </r>
      </set>
      <set comment="kpoint 31">
       <r>   -2.0490    1.0000 </r>
       <r>   -2.0490    1.0000 </r>
       <r>    2.2397    1.0000 </r>
       <r>    2.2397    1.0000 </r>
       <r>    7.7171    0.0000 </r>
       <r>    7.7171    0.0000 </r>
       <r>   13.2018    0.0000 </r>
       <r>   13.2018    0.0000 </r>
      </set>
      <set comment="kpoint 32">
       <r>   -2.0363    1.0000 </r>
       <r>   -2.0363    1.0000 </r>
       <r>    2.1665    1.0000 </r>
       <r>    2.1665    1.0000 </r>
       <r>    7.9530    0.0000 </r>
       <r>    7.9530    0.0000 </r>
       <r>   12.8646    0.0000 </r>
       <r>   12.8646    0.0000 </r>
      </set>
      <set comment="kpoint 33">
       <r>   -2.0239    1.0000 </r>
       <r>   -2.0239    1.0000 </r>
       <r>    2.0987    1.0000 </r>
       <r>    2.0987    1.0000 </r>
       <r>    8.1995    0.0000 </r>
       <r>    8.1995    0.0000 </r>
       <r>   12.5286    0.0000 </r>
       <r>   12.5286    0.0000 </r>
      </set>
      <set comment="kpoint 34">
       <r>   -2.0122    1.0000 </r>
       <r>   -2.0122    1.0000 </r>
       <r>    2.0374    1.0000 </r>
       <r>    2.0374    1.0000 </r>
       <r>    8.4554    0.0000 </r>
       <r>    8.4554    0.0000 </r>
       <r>   12.1954    0.0000 </r>
       <r>   12.1954    0.0000 </r>
      </set>
      <set comment="kpoint 35">
       <r>   -2.0015    1.0000 </r>
       <r>   -2.0015    1.0000 </r>
       <r>    1.9838    1.0000 </r>
       <r>    1.9838    1.0000 </r>
       <r>    8.7191    0.0000 </r>
       <r>    8.7191    0.0000 </r>
       <r>   11.8665    0.0000 </r>
       <r>   11.8665    0.0000 </r>
      </set>
      <set comment="kpoint 36">
       <r>   -1.9923    1.0000 </r>
       <r>   -1.9923    1.0000 </r>
       <r>    1.9387    1.0000 </r>
       <r>    1.9387    1.0000 </r>
       <r>    8.9887    0.0000 </r>
       <r>    8.9887    0.0000 </r>
       <r>   11.5435    0.0000 </r>
       <r>   11.5435    0.0000 </r>
      </set>
      <set comment="kpoint 37">
       <r>   -1.9847    1.0000 </r>
       <r>   -1.9847    1.0000 </r>
       <r>    1.9029    1.0000 </r>
       <r>    1.9029    1.0000 </r>
       <r>    9.2611    0.0000 </r>
       <r>    9.2611    0.0000 </r>
       <r>   11.2298    0.0000 </r>
       <r>   11.2298    0.0000 </r>
      </set>
      <set comment="kpoint 38">
       <r>   -1.9792    1.0000 </r>
       <r>   -1.9792    1.0000 </r>
       <r>    1.8769    1.0000 </r>
       <r>    1.8769    1.0000 </r>
       <r>    9.5289    0.0000 </r>
       <r>    9.5289    0.0000 </r>
       <r>   10.9325    0.0000 </r>
       <r>   10.9325    0.0000 </r>
      </set>
      <set comment="kpoint 39">
       <r>   -1.9757    1.0000 </r>
       <r>   -1.9757    1.0000 </r>
       <r>    1.8612    1.0000 </r>
       <r>    1.8612    1.0000 </r>
       <r>    9.7685    0.0000 </r>
       <r>    9.7685    0.0000 </r>
       <r>   10.6752    0.0000 </r>
       <r>   10.6752    0.0000 </r>
      </set>
      <set comment="kpoint 40">
       <r>   -1.9746    1.0000 </r>
       <r>   -1.9746    1.0000 </r>
       <r>    1.8559    1.0000 </r>
       <r>    1.8559    1.0000 </r>
       <r>    9.8878    0.0000 </r>
       <r>    9.8878    0.0000 </r>
       <r>   10.5500    0.0000 </r>
       <r>   10.5500    0.0000 </r>
      </set>
      <set comment="kpoint 41">
       <r>   -1.9746    1.0000 </r>
       <r>   -1.9746    1.0000 </r>
       <r>    1.8559    1.0000 </r>
       <r>    1.8559    1.0000 </r>
       <r>    9.8878    0.0000 </r>
       <r>    9.8878    0.0000 </r>
       <r>   10.5500    0.0000 </r>
       <r>   10.5500    0.0000 </r>
      </set>
      <set comment="kpoint 42">
       <r>   -2.0327    1.0000 </r>
       <r>   -1.9174    1.0000 </r>
       <r>    1.8124    1.0000 </r>
       <r>    1.9046    1.0000 </r>
       <r>    9.7803    0.0000 </r>
       <r>    9.9210    0.0000 </r>
       <r>   10.5666    0.0000 </r>
       <r>   10.6138    0.0000 </r>
      </set>
      <set comment="kpoint 43">
       <r>   -2.0877    1.0000 </r>
       <r>   -1.8654    1.0000 </r>
       <r>    1.7709    1.0000 </r>
       <r>    1.9618    1.0000 </r>
       <r>    9.5908    0.0000 </r>
       <r>    9.9344    0.0000 </r>
       <r>   10.6727    0.0000 </r>
       <r>   10.7021    0.0000 </r>
      </set>
      <set comment="kpoint 44">
       <r>   -2.1396    1.0000 </r>
       <r>   -1.8183    1.0000 </r>
       <r>    1.7314    1.0000 </r>
       <r>    2.0269    1.0000 </r>
       <r>    9.3714    0.0000 </r>
       <r>    9.9334    0.0000 </r>
       <r>   10.8093    0.0000 </r>
       <r>   10.8166    0.0000 </r>
      </set>
      <set comment="kpoint 45">
       <r>   -2.1884    1.0000 </r>
       <r>   -1.7761    1.0000 </r>
       <r>    1.6941    1.0000 </r>
       <r>    2.0996    1.0000 </r>
       <r>    9.1432    0.0000 </r>
       <r>    9.9232    0.0000 </r>
       <r>   10.9301    0.0000 </r>
       <r>   10.9775    0.0000 </r>
      </set>
      <set comment="kpoint 46">
       <r>   -2.2341    1.0000 </r>
       <r>   -1.7385    1.0000 </r>
       <r>    1.6590    1.0000 </r>
       <r>    2.1792    1.0000 </r>
       <r>    8.9142    0.0000 </r>
       <r>    9.9078    0.0000 </r>
       <r>   11.0605    0.0000 </r>
       <r>   11.1480    0.0000 </r>
      </set>
      <set comment="kpoint 47">
       <r>   -2.2767    1.0000 </r>
       <r>   -1.7055    1.0000 </r>
       <r>    1.6261    1.0000 </r>
       <r>    2.2649    1.0000 </r>
       <r>    8.6882    0.0000 </r>
       <r>    9.8895    0.0000 </r>
       <r>   11.1979    0.0000 </r>
       <r>   11.3246    0.0000 </r>
      </set>
      <set comment="kpoint 48">
       <r>   -2.3162    1.0000 </r>
       <r>   -1.6766    1.0000 </r>
       <r>    1.5955    1.0000 </r>
       <r>    2.3558    1.0000 </r>
       <r>    8.4672    0.0000 </r>
       <r>    9.8700    0.0000 </r>
       <r>   11.3405    0.0000 </r>
       <r>   11.5059    0.0000 </r>
      </set>
      <set comment="kpoint 49">
       <r>   -2.3525    1.0000 </r>
       <r>   -1.6516    1.0000 </r>
       <r>    1.5673    1.0000 </r>
       <r>    2.4508    1.0000 </r>
       <r>    8.2531    0.0000 </r>
       <r>    9.8504    0.0000 </r>
       <r>   11.4870    0.0000 </r>
       <r>   11.6910    0.0000 </r>
      </set>
      <set comment="kpoint 50">
       <r>   -2.3857    1.0000 </r>
       <r>   -1.6301    1.0000 </r>
       <r>    1.5413    1.0000 </r>
       <r>    2.5486    1.0000 </r>
       <r>    8.0471    0.0000 </r>
       <r>    9.8313    0.0000 </r>
       <r>   11.6367    0.0000 </r>
       <r>   11.8792    0.0000 </r>
      </set>
      <set comment="kpoint 51">
       <r>   -2.4158    1.0000 </r>
       <r>   -1.6118    1.0000 </r>
       <r>    1.5178    1.0000 </r>
       <r>    2.6477    1.0000 </r>
       <r>    7.8508    0.0000 </r>
       <r>    9.8133    0.0000 </r>
       <r>   11.7887    0.0000 </r>
       <r>   12.0702    0.0000 </r>
      </set>
      <set comment="kpoint 52">
       <r>   -2.4427    1.0000 </r>
       <r>   -1.5964    1.0000 </r>
       <r>    1.4966    1.0000 </r>
       <r>    2.7464    1.0000 </r>
       <r>    7.6658    0.0000 </r>
       <r>    9.7965    0.0000 </r>
       <r>   11.9424    0.0000 </r>
       <r>   12.2635    0.0000 </r>
      </set>
      <set comment="kpoint 53">
       <r>   -2.4664    1.0000 </r>
       <r>   -1.5836    1.0000 </r>
       <r>    1.4779    1.0000 </r>
       <r>    2.8427    1.0000 </r>
       <r>    7.4938    0.0000 </r>
       <r>    9.7814    0.0000 </r>
       <r>   12.0972    0.0000 </r>
       <r>   12.4589    0.0000 </r>
      </set>
      <set comment="kpoint 54">
       <r>   -2.4870    1.0000 </r>
       <r>   -1.5731    1.0000 </r>
       <r>    1.4616    1.0000 </r>
       <r>    2.9344    1.0000 </r>
       <r>    7.3370    0.0000 </r>
       <r>    9.7680    0.0000 </r>
       <r>   12.2524    0.0000 </r>
       <r>   12.6560    0.0000 </r>
      </set>
      <set comment="kpoint 55">
       <r>   -2.5044    1.0000 </r>
       <r>   -1.5646    1.0000 </r>
       <r>    1.4479    1.0000 </r>
       <r>    3.0190    1.0000 </r>
       <r>    7.1976    0.0000 </r>
       <r>    9.7566    0.0000 </r>
       <r>   12.4070    0.0000 </r>
       <r>   12.8541    0.0000 </r>
      </set>
      <set comment="kpoint 56">
       <r>   -2.5187    1.0000 </r>
       <r>   -1.5579    1.0000 </r>
       <r>    1.4366    1.0000 </r>
       <r>    3.0938    1.0000 </r>
       <r>    7.0783    0.0000 </r>
       <r>    9.7471    0.0000 </r>
       <r>   12.5596    0.0000 </r>
       <r>   13.0525    0.0000 </r>
      </set>
      <set comment="kpoint 57">
       <r>   -2.5298    1.0000 </r>
       <r>   -1.5530    1.0000 </r>
       <r>    1.4278    1.0000 </r>
       <r>    3.1559    1.0000 </r>
       <r>    6.9816    0.0000 </r>
       <r>    9.7396    0.0000 </r>
       <r>   12.7071    0.0000 </r>
       <r>   13.2495    0.0000 </r>
      </set>
      <set comment="kpoint 58">
       <r>   -2.5377    1.0000 </r>
       <r>   -1.5495    1.0000 </r>
       <r>    1.4215    1.0000 </r>
       <r>    3.2026    1.0000 </r>
       <r>    6.9103    0.0000 </r>
       <r>    9.7342    0.0000 </r>
       <r>   12.8435    0.0000 </r>
       <r>   13.4416    0.0000 </r>
      </set>
      <set comment="kpoint 59">
       <r>   -2.5425    1.0000 </r>
       <r>   -1.5475    1.0000 </r>
       <r>    1.4177    1.0000 </r>
       <r>    3.2317    1.0000 </r>
       <r>    6.8665    0.0000 </r>
       <r>    9.7310    0.0000 </r>
       <r>   12.9529    0.0000 </r>
       <r>   13.5844    0.0000 </r>
      </set>
      <set comment="kpoint 60">
       <r>   -2.5440    1.0000 </r>
       <r>   -1.5468    1.0000 </r>
       <r>    1.4164    1.0000 </r>
       <r>    3.2416    1.0000 </r>
       <r>    6.8517    0.0000 </r>
       <r>    9.7299    0.0000 </r>
       <r>   12.9991    0.0000 </r>
       <r>   13.5352    0.0000 </r>
      </set>
      <set comment="kpoint 61">
       <r>   -2.5440    1.0000 </r>
       <r>   -1.5468    1.0000 </r>
       <r>    1.4164    1.0000 </r>
       <r>    3.2416    1.0000 </r>
       <r>    6.8517    0.0000 </r>
       <r>    9.7299    0.0000 </r>
       <r>   12.9991    0.0000 </r>
       <r>   13.5350    0.0000 </r>
      </set>
      <set comment="kpoint 62">
       <r>   -2.7392    1.0000 </r>
       <r>   -1.3492    1.0000 </r>
       <r>    1.3210    1.0000 </r>
       <r>    3.3781    1.0000 </r>
       <r>    7.0093    0.0000 </r>
       <r>   10.5253    0.0000 </r>
       <r>   12.5280    0.0000 </r>
       <r>   13.0507    0.0000 </r>
      </set>
      <set comment="kpoint 63">
       <r>   -2.9731    1.0000 </r>
       <r>   -1.1231    1.0000 </r>
       <r>    1.3038    1.0000 </r>
       <r>    3.5305    1.0000 </r>
       <r>    7.1848    0.0000 </r>
       <r>   11.3132    0.0000 </r>
       <r>   12.0749    0.0000 </r>
       <r>   12.6273    0.0000 </r>
      </set>
      <set comment="kpoint 64">
       <r>   -3.2364    1.0000 </r>
       <r>   -0.8689    1.0000 </r>
       <r>    1.3587    1.0000 </r>
       <r>    3.6968    1.0000 </r>
       <r>    7.3754    0.0000 </r>
       <r>   11.6422    0.0000 </r>
       <r>   11.7974    0.0000 </r>
       <r>   12.5531    0.0000 </r>
      </set>
      <set comment="kpoint 65">
       <r>   -3.5183    1.0000 </r>
       <r>   -0.5868    1.0000 </r>
       <r>    1.4768    1.0000 </r>
       <r>    3.8744    1.0000 </r>
       <r>    7.5770    0.0000 </r>
       <r>   11.2317    0.0000 </r>
       <r>   11.5535    0.0000 </r>
       <r>   12.2831    0.0000 </r>
      </set>
      <set comment="kpoint 66">
       <r>   -3.8085    1.0000 </r>
       <r>   -0.2771    1.0000 </r>
       <r>    1.6488    1.0000 </r>
       <r>    4.0603    1.0000 </r>
       <r>    7.7842    0.0000 </r>
       <r>   10.8447    0.0000 </r>
       <r>   11.1844    0.0000 </r>
       <r>   11.9907    0.0000 </r>
      </set>
      <set comment="kpoint 67">
       <r>   -4.0985    1.0000 </r>
       <r>    0.0597    1.0000 </r>
       <r>    1.8665    1.0000 </r>
       <r>    4.2511    1.0000 </r>
       <r>    7.9893    0.0000 </r>
       <r>   10.4820    0.0000 </r>
       <r>   10.8191    0.0000 </r>
       <r>   11.7355    0.0000 </r>
      </set>
      <set comment="kpoint 68">
       <r>   -4.3815    1.0000 </r>
       <r>    0.4232    1.0000 </r>
       <r>    2.1227    1.0000 </r>
       <r>    4.4426    1.0000 </r>
       <r>    8.1825    0.0000 </r>
       <r>   10.1444    0.0000 </r>
       <r>   10.4727    0.0000 </r>
       <r>   11.5249    0.0000 </r>
      </set>
      <set comment="kpoint 69">
       <r>   -4.6524    1.0000 </r>
       <r>    0.8127    1.0000 </r>
       <r>    2.4114    1.0000 </r>
       <r>    4.6304    1.0000 </r>
       <r>    8.3516    0.0000 </r>
       <r>    9.8325    0.0000 </r>
       <r>   10.1489    0.0000 </r>
       <r>   11.3665    0.0000 </r>
      </set>
      <set comment="kpoint 70">
       <r>   -4.9075    1.0000 </r>
       <r>    1.2275    1.0000 </r>
       <r>    2.7273    1.0000 </r>
       <r>    4.8096    1.0000 </r>
       <r>    8.4839    0.0000 </r>
       <r>    9.5467    0.0000 </r>
       <r>    9.8487    0.0000 </r>
       <r>   11.2647    0.0000 </r>
      </set>
      <set comment="kpoint 71">
       <r>   -5.1438    1.0000 </r>
       <r>    1.6665    1.0000 </r>
       <r>    3.0650    1.0000 </r>
       <r>    4.9757    1.0000 </r>
       <r>    8.5699    0.0000 </r>
       <r>    9.2874    0.0000 </r>
       <r>    9.5723    0.0000 </r>
       <r>   11.2145    0.0000 </r>
      </set>
      <set comment="kpoint 72">
       <r>   -5.3592    1.0000 </r>
       <r>    2.1284    1.0000 </r>
       <r>    3.4192    1.0000 </r>
       <r>    5.1247    1.0000 </r>
       <r>    8.6080    0.0000 </r>
       <r>    9.0547    0.0000 </r>
       <r>    9.3195    0.0000 </r>
       <r>   11.1912    0.0000 </r>
      </set>
      <set comment="kpoint 73">
       <r>   -5.5521    1.0000 </r>
       <r>    2.6111    1.0000 </r>
       <r>    3.7834    1.0000 </r>
       <r>    5.2536    1.0000 </r>
       <r>    8.6054    0.0000 </r>
       <r>    8.8490    0.0000 </r>
       <r>    9.0895    0.0000 </r>
       <r>   11.1399    0.0000 </r>
      </set>
      <set comment="kpoint 74">
       <r>   -5.7213    1.0000 </r>
       <r>    3.1116    1.0000 </r>
       <r>    4.1502    1.0000 </r>
       <r>    5.3611    1.0000 </r>
       <r>    8.5741    0.0000 </r>
       <r>    8.6704    0.0000 </r>
       <r>    8.8818    0.0000 </r>
       <r>   10.9767    0.0000 </r>
      </set>
      <set comment="kpoint 75">
       <r>   -5.8658    1.0000 </r>
       <r>    3.6251    1.0000 </r>
       <r>    4.5098    1.0000 </r>
       <r>    5.4471    1.0000 </r>
       <r>    8.5191    0.0000 </r>
       <r>    8.5261    0.0000 </r>
       <r>    8.6956    0.0000 </r>
       <r>   10.6405    0.0000 </r>
      </set>
      <set comment="kpoint 76">
       <r>   -5.9848    1.0000 </r>
       <r>    4.1434    1.0000 </r>
       <r>    4.8495    1.0000 </r>
       <r>    5.5131    1.0000 </r>
       <r>    8.3951    0.0000 </r>
       <r>    8.4700    0.0000 </r>
       <r>    8.5309    0.0000 </r>
       <r>   10.1660    0.0000 </r>
      </set>
      <set comment="kpoint 77">
       <r>   -6.0779    1.0000 </r>
       <r>    4.6509    1.0000 </r>
       <r>    5.1526    1.0000 </r>
       <r>    5.5610    1.0000 </r>
       <r>    8.2986    0.0000 </r>
       <r>    8.3895    0.0000 </r>
       <r>    8.4085    0.0000 </r>
       <r>    9.6447    0.0000 </r>
      </set>
      <set comment="kpoint 78">
       <r>   -6.1447    1.0000 </r>
       <r>    5.1163    1.0000 </r>
       <r>    5.3978    1.0000 </r>
       <r>    5.5931    1.0000 </r>
       <r>    8.2297    0.0000 </r>
       <r>    8.2765    0.0000 </r>
       <r>    8.3346    0.0000 </r>
       <r>    9.1720    0.0000 </r>
      </set>
      <set comment="kpoint 79">
       <r>   -6.1848    1.0000 </r>
       <r>    5.4747    1.0000 </r>
       <r>    5.5602    1.0000 </r>
       <r>    5.6114    1.0000 </r>
       <r>    8.1883    0.0000 </r>
       <r>    8.2013    0.0000 </r>
       <r>    8.2363    0.0000 </r>
       <r>    8.8544    0.0000 </r>
      </set>
      <set comment="kpoint 80">
       <r>   -6.1982    1.0000 </r>
       <r>    5.6174    1.0000 </r>
       <r>    5.6174    1.0000 </r>
       <r>    5.6174    1.0000 </r>
       <r>    8.1745    0.0000 </r>
       <r>    8.1745    0.0000 </r>
       <r>    8.1745    0.0000 </r>
       <r>    8.7530    0.0000 </r>
      </set>
      <set comment="kpoint 81">
       <r>   -6.1982    1.0000 </r>
       <r>    5.6174    1.0000 </r>
       <r>    5.6174    1.0000 </r>
       <r>    5.6174    1.0000 </r>
       <r>    8.1745    0.0000 </r>
       <r>    8.1745    0.0000 </r>
       <r>    8.1745    0.0000 </r>
       <r>    8.7530    0.0000 </r>
      </set>
      <set comment="kpoint 82">
       <r>   -6.1893    1.0000 </r>
       <r>    5.5094    1.0000 </r>
       <r>    5.6020    1.0000 </r>
       <r>    5.6020    1.0000 </r>
       <r>    8.1970    0.0000 </r>
       <r>    8.1970    0.0000 </r>
       <r>    8.1990    0.0000 </r>
       <r>    8.8208    0.0000 </r>
      </set>
      <set comment="kpoint 83">
       <r>   -6.1625    1.0000 </r>
       <r>    5.2243    1.0000 </r>
       <r>    5.5579    1.0000 </r>
       <r>    5.5579    1.0000 </r>
       <r>    8.2192    0.0000 </r>
       <r>    8.2618    0.0000 </r>
       <r>    8.2618    0.0000 </r>
       <r>    9.0400    0.0000 </r>
      </set>
      <set comment="kpoint 84">
       <r>   -6.1180    1.0000 </r>
       <r>    4.8317    1.0000 </r>
       <r>    5.4903    1.0000 </r>
       <r>    5.4903    1.0000 </r>
       <r>    8.1911    0.0000 </r>
       <r>    8.3617    0.0000 </r>
       <r>    8.3617    0.0000 </r>
       <r>    9.3888    0.0000 </r>
      </set>
      <set comment="kpoint 85">
       <r>   -6.0558    1.0000 </r>
       <r>    4.3827    1.0000 </r>
       <r>    5.4057    1.0000 </r>
       <r>    5.4057    1.0000 </r>
       <r>    8.1254    0.0000 </r>
       <r>    8.4867    0.0000 </r>
       <r>    8.4867    0.0000 </r>
       <r>    9.8109    0.0000 </r>
      </set>
      <set comment="kpoint 86">
       <r>   -5.9762    1.0000 </r>
       <r>    3.9060    1.0000 </r>
       <r>    5.3106    1.0000 </r>
       <r>    5.3106    1.0000 </r>
       <r>    8.0378    0.0000 </r>
       <r>    8.6252    0.0000 </r>
       <r>    8.6252    0.0000 </r>
       <r>   10.2677    0.0000 </r>
      </set>
      <set comment="kpoint 87">
       <r>   -5.8795    1.0000 </r>
       <r>    3.4178    1.0000 </r>
       <r>    5.2104    1.0000 </r>
       <r>    5.2104    1.0000 </r>
       <r>    7.9384    0.0000 </r>
       <r>    8.7651    0.0000 </r>
       <r>    8.7651    0.0000 </r>
       <r>   10.7390    0.0000 </r>
      </set>
      <set comment="kpoint 88">
       <r>   -5.7660    1.0000 </r>
       <r>    2.9277    1.0000 </r>
       <r>    5.1094    1.0000 </r>
       <r>    5.1094    1.0000 </r>
       <r>    7.8338    0.0000 </r>
       <r>    8.8943    0.0000 </r>
       <r>    8.8943    0.0000 </r>
       <r>   11.2137    0.0000 </r>
      </set>
      <set comment="kpoint 89">
       <r>   -5.6364    1.0000 </r>
       <r>    2.4420    1.0000 </r>
       <r>    5.0109    1.0000 </r>
       <r>    5.0109    1.0000 </r>
       <r>    7.7288    0.0000 </r>
       <r>    9.0021    0.0000 </r>
       <r>    9.0021    0.0000 </r>
       <r>   11.6850    0.0000 </r>
      </set>
      <set comment="kpoint 90">
       <r>   -5.4913    1.0000 </r>
       <r>    1.9650    1.0000 </r>
       <r>    4.9170    1.0000 </r>
       <r>    4.9170    1.0000 </r>
       <r>    7.6267    0.0000 </r>
       <r>    9.0807    0.0000 </r>
       <r>    9.0807    0.0000 </r>
       <r>   12.1461    0.0000 </r>
      </set>
      <set comment="kpoint 91">
       <r>   -5.3317    1.0000 </r>
       <r>    1.5005    1.0000 </r>
       <r>    4.8294    1.0000 </r>
       <r>    4.8294    1.0000 </r>
       <r>    7.5299    0.0000 </r>
       <r>    9.1270    0.0000 </r>
       <r>    9.1270    0.0000 </r>
       <r>   12.5867    0.0000 </r>
      </set>
      <set comment="kpoint 92">
       <r>   -5.1590    1.0000 </r>
       <r>    1.0516    1.0000 </r>
       <r>    4.7494    1.0000 </r>
       <r>    4.7494    1.0000 </r>
       <r>    7.4404    0.0000 </r>
       <r>    9.1433    0.0000 </r>
       <r>    9.1433    0.0000 </r>
       <r>   12.9844    0.0000 </r>
      </set>
      <set comment="kpoint 93">
       <r>   -4.9753    1.0000 </r>
       <r>    0.6218    1.0000 </r>
       <r>    4.6777    1.0000 </r>
       <r>    4.6777    1.0000 </r>
       <r>    7.3595    0.0000 </r>
       <r>    9.1356    0.0000 </r>
       <r>    9.1356    0.0000 </r>
       <r>   13.2918    0.0000 </r>
      </set>
      <set comment="kpoint 94">
       <r>   -4.7833    1.0000 </r>
       <r>    0.2148    1.0000 </r>
       <r>    4.6150    1.0000 </r>
       <r>    4.6150    1.0000 </r>
       <r>    7.2880    0.0000 </r>
       <r>    9.1118    0.0000 </r>
       <r>    9.1118    0.0000 </r>
       <r>   13.4348    0.0000 </r>
      </set>
      <set comment="kpoint 95">
       <r>   -4.5875    1.0000 </r>
       <r>   -0.1640    1.0000 </r>
       <r>    4.5615    1.0000 </r>
       <r>    4.5615    1.0000 </r>
       <r>    7.2266    0.0000 </r>
       <r>    9.0793    0.0000 </r>
       <r>    9.0793    0.0000 </r>
       <r>   13.4601    0.0000 </r>
      </set>
      <set comment="kpoint 96">
       <r>   -4.3943    1.0000 </r>
       <r>   -0.5076    1.0000 </r>
       <r>    4.5175    1.0000 </r>
       <r>    4.5175    1.0000 </r>
       <r>    7.1759    0.0000 </r>
       <r>    9.0448    0.0000 </r>
       <r>    9.0448    0.0000 </r>
       <r>   13.4313    0.0000 </r>
      </set>
      <set comment="kpoint 97">
       <r>   -4.2141    1.0000 </r>
       <r>   -0.8052    1.0000 </r>
       <r>    4.4832    1.0000 </r>
       <r>    4.4832    1.0000 </r>
       <r>    7.1362    0.0000 </r>
       <r>    9.0133    0.0000 </r>
       <r>    9.0133    0.0000 </r>
       <r>   13.3895    0.0000 </r>
      </set>
      <set comment="kpoint 98">
       <r>   -4.0618    1.0000 </r>
       <r>   -1.0417    1.0000 </r>
       <r>    4.4586    1.0000 </r>
       <r>    4.4586    1.0000 </r>
       <r>    7.1076    0.0000 </r>
       <r>    8.9883    0.0000 </r>
       <r>    8.9883    0.0000 </r>
       <r>   13.3528    0.0000 </r>
      </set>
      <set comment="kpoint 99">
       <r>   -3.9570    1.0000 </r>
       <r>   -1.1971    1.0000 </r>
       <r>    4.4438    1.0000 </r>
       <r>    4.4438    1.0000 </r>
       <r>    7.0905    0.0000 </r>
       <r>    8.9724    0.0000 </r>
       <r>    8.9724    0.0000 </r>
       <r>   13.3285    0.0000 </r>
      </set>
      <set comment="kpoint 100">
       <r>   -3.9192    1.0000 </r>
       <r>   -1.2517    1.0000 </r>
       <r>    4.4389    1.0000 </r>
       <r>    4.4389    1.0000 </r>
       <r>    7.0847    0.0000 </r>
       <r>    8.9670    0.0000 </r>
       <r>    8.9670    0.0000 </r>
       <r>   13.3201    0.0000 </r>
      </set>
      <set comment="kpoint 101">
       <r>   -3.9192    1.0000 </r>
       <r>   -1.2517    1.0000 </r>
       <r>    4.4389    1.0000 </r>
       <r>    4.4389    1.0000 </r>
       <r>    7.0847    0.0000 </r>
       <r>    8.9670    0.0000 </r>
       <r>    8.9670    0.0000 </r>
       <r>   13.3201    0.0000 </r>
      </set>
      <set comment="kpoint 102">
       <r>   -3.9147    1.0000 </r>
       <r>   -1.2495    1.0000 </r>
       <r>    4.3956    1.0000 </r>
       <r>    4.4307    1.0000 </r>
       <r>    7.1253    0.0000 </r>
       <r>    8.9594    0.0000 </r>
       <r>    8.9843    0.0000 </r>
       <r>   13.3399    0.0000 </r>
      </set>
      <set comment="kpoint 103">
       <r>   -3.9013    1.0000 </r>
       <r>   -1.2428    1.0000 </r>
       <r>    4.2737    1.0000 </r>
       <r>    4.4063    1.0000 </r>
       <r>    7.2368    0.0000 </r>
       <r>    8.9396    0.0000 </r>
       <r>    9.0359    0.0000 </r>
       <r>   13.3961    0.0000 </r>
      </set>
      <set comment="kpoint 104">
       <r>   -3.8789    1.0000 </r>
       <r>   -1.2319    1.0000 </r>
       <r>    4.0924    1.0000 </r>
       <r>    4.3671    1.0000 </r>
       <r>    7.3941    0.0000 </r>
       <r>    8.9174    0.0000 </r>
       <r>    9.1205    0.0000 </r>
       <r>   13.4792    0.0000 </r>
      </set>
      <set comment="kpoint 105">
       <r>   -3.8477    1.0000 </r>
       <r>   -1.2172    1.0000 </r>
       <r>    3.8713    1.0000 </r>
       <r>    4.3148    1.0000 </r>
       <r>    7.5640    0.0000 </r>
       <r>    8.9111    0.0000 </r>
       <r>    9.2362    0.0000 </r>
       <r>   13.5697    0.0000 </r>
      </set>
      <set comment="kpoint 106">
       <r>   -3.8076    1.0000 </r>
       <r>   -1.1992    1.0000 </r>
       <r>    3.6261    1.0000 </r>
       <r>    4.2517    1.0000 </r>
       <r>    7.7085    0.0000 </r>
       <r>    8.9490    0.0000 </r>
       <r>    9.3809    0.0000 </r>
       <r>   13.6296    0.0000 </r>
      </set>
      <set comment="kpoint 107">
       <r>   -3.7588    1.0000 </r>
       <r>   -1.1789    1.0000 </r>
       <r>    3.3682    1.0000 </r>
       <r>    4.1800    1.0000 </r>
       <r>    7.7926    0.0000 </r>
       <r>    9.0604    0.0000 </r>
       <r>    9.5519    0.0000 </r>
       <r>   13.5910    0.0000 </r>
      </set>
      <set comment="kpoint 108">
       <r>   -3.7012    1.0000 </r>
       <r>   -1.1572    1.0000 </r>
       <r>    3.1058    1.0000 </r>
       <r>    4.1021    1.0000 </r>
       <r>    7.8057    0.0000 </r>
       <r>    9.2536    0.0000 </r>
       <r>    9.7470    0.0000 </r>
       <r>   13.4096    0.0000 </r>
      </set>
      <set comment="kpoint 109">
       <r>   -3.6352    1.0000 </r>
       <r>   -1.1358    1.0000 </r>
       <r>    2.8450    1.0000 </r>
       <r>    4.0202    1.0000 </r>
       <r>    7.7640    0.0000 </r>
       <r>    9.5113    0.0000 </r>
       <r>    9.9638    0.0000 </r>
       <r>   13.1349    0.0000 </r>
      </set>
      <set comment="kpoint 110">
       <r>   -3.5607    1.0000 </r>
       <r>   -1.1164    1.0000 </r>
       <r>    2.5912    1.0000 </r>
       <r>    3.9360    1.0000 </r>
       <r>    7.6895    0.0000 </r>
       <r>    9.8111    0.0000 </r>
       <r>   10.2001    0.0000 </r>
       <r>   12.8237    0.0000 </r>
      </set>
      <set comment="kpoint 111">
       <r>   -3.4781    1.0000 </r>
       <r>   -1.1015    1.0000 </r>
       <r>    2.3491    1.0000 </r>
       <r>    3.8514    1.0000 </r>
       <r>    7.5981    0.0000 </r>
       <r>   10.1365    0.0000 </r>
       <r>   10.4541    0.0000 </r>
       <r>   12.5021    0.0000 </r>
      </set>
      <set comment="kpoint 112">
       <r>   -3.3875    1.0000 </r>
       <r>   -1.0941    1.0000 </r>
       <r>    2.1238    1.0000 </r>
       <r>    3.7677    1.0000 </r>
       <r>    7.4993    0.0000 </r>
       <r>   10.4763    0.0000 </r>
       <r>   10.7238    0.0000 </r>
       <r>   12.1826    0.0000 </r>
      </set>
      <set comment="kpoint 113">
       <r>   -3.2896    1.0000 </r>
       <r>   -1.0978    1.0000 </r>
       <r>    1.9203    1.0000 </r>
       <r>    3.6861    1.0000 </r>
       <r>    7.3991    0.0000 </r>
       <r>   10.8168    0.0000 </r>
       <r>   11.0074    0.0000 </r>
       <r>   11.8781    0.0000 </r>
      </set>
      <set comment="kpoint 114">
       <r>   -3.1847    1.0000 </r>
       <r>   -1.1162    1.0000 </r>
       <r>    1.7439    1.0000 </r>
       <r>    3.6076    1.0000 </r>
       <r>    7.3010    0.0000 </r>
       <r>   11.1053    0.0000 </r>
       <r>   11.3027    0.0000 </r>
       <r>   11.6403    0.0000 </r>
      </set>
      <set comment="kpoint 115">
       <r>   -3.0740    1.0000 </r>
       <r>   -1.1528    1.0000 </r>
       <r>    1.5993    1.0000 </r>
       <r>    3.5332    1.0000 </r>
       <r>    7.2075    0.0000 </r>
       <r>   11.0860    0.0000 </r>
       <r>   11.6074    0.0000 </r>
       <r>   11.7246    0.0000 </r>
      </set>
      <set comment="kpoint 116">
       <r>   -2.9587    1.0000 </r>
       <r>   -1.2094    1.0000 </r>
       <r>    1.4903    1.0000 </r>
       <r>    3.4634    1.0000 </r>
       <r>    7.1202    0.0000 </r>
       <r>   10.8344    0.0000 </r>
       <r>   11.9178    0.0000 </r>
       <r>   12.0547    0.0000 </r>
      </set>
      <set comment="kpoint 117">
       <r>   -2.8415    1.0000 </r>
       <r>   -1.2853    1.0000 </r>
       <r>    1.4190    1.0000 </r>
       <r>    3.3989    1.0000 </r>
       <r>    7.0403    0.0000 </r>
       <r>   10.5528    0.0000 </r>
       <r>   12.2282    0.0000 </r>
       <r>   12.4279    0.0000 </r>
      </set>
      <set comment="kpoint 118">
       <r>   -2.7266    1.0000 </r>
       <r>   -1.3755    1.0000 </r>
       <r>    1.3848    1.0000 </r>
       <r>    3.3402    1.0000 </r>
       <r>    6.9686    0.0000 </r>
       <r>   10.2713    0.0000 </r>
       <r>   12.5278    0.0000 </r>
       <r>   12.8130    0.0000 </r>
      </set>
      <set comment="kpoint 119">
       <r>   -2.6223    1.0000 </r>
       <r>   -1.4690    1.0000 </r>
       <r>    1.3853    1.0000 </r>
       <r>    3.2876    1.0000 </r>
       <r>    6.9056    0.0000 </r>
       <r>    9.9962    0.0000 </r>
       <r>   12.7958    0.0000 </r>
       <r>   13.2007    0.0000 </r>
      </set>
      <set comment="kpoint 120">
       <r>   -2.5440    1.0000 </r>
       <r>   -1.5468    1.0000 </r>
       <r>    1.4164    1.0000 </r>
       <r>    3.2416    1.0000 </r>
       <r>    6.8517    0.0000 </r>
       <r>    9.7299    0.0000 </r>
       <r>   12.9991    0.0000 </r>
       <r>   13.5353    0.0000 </r>
      </set>
      <set comment="kpoint 121">
       <r>   -2.5440    1.0000 </r>
       <r>   -1.5468    1.0000 </r>
       <r>    1.4164    1.0000 </r>
       <r>    3.2416    1.0000 </r>
       <r>    6.8517    0.0000 </r>
       <r>    9.7299    0.0000 </r>
       <r>   12.9991    0.0000 </r>
       <r>   13.5347    0.0000 </r>
      </set>
      <set comment="kpoint 122">
       <r>   -2.5425    1.0000 </r>
       <r>   -1.5475    1.0000 </r>
       <r>    1.4177    1.0000 </r>
       <r>    3.2317    1.0000 </r>
       <r>    6.8665    0.0000 </r>
       <r>    9.7310    0.0000 </r>
       <r>   12.9529    0.0000 </r>
       <r>   13.5815    0.0000 </r>
      </set>
      <set comment="kpoint 123">
       <r>   -2.5377    1.0000 </r>
       <r>   -1.5495    1.0000 </r>
       <r>    1.4215    1.0000 </r>
       <r>    3.2026    1.0000 </r>
       <r>    6.9103    0.0000 </r>
       <r>    9.7342    0.0000 </r>
       <r>   12.8435    0.0000 </r>
       <r>   13.4411    0.0000 </r>
      </set>
      <set comment="kpoint 124">
       <r>   -2.5298    1.0000 </r>
       <r>   -1.5530    1.0000 </r>
       <r>    1.4278    1.0000 </r>
       <r>    3.1559    1.0000 </r>
       <r>    6.9816    0.0000 </r>
       <r>    9.7396    0.0000 </r>
       <r>   12.7071    0.0000 </r>
       <r>   13.2495    0.0000 </r>
      </set>
[...]
        <r>  0.0000  0.1607  0.0000 </r>
       </set>
       <set comment="band 8">
        <r>  0.0316  0.1000  0.0000 </r>
        <r>  0.0304  0.1016  0.0000 </r>
       </set>
      </set>
      <set comment="kpoint 183">
       <set comment="band 1">
        <r>  0.2107  0.0335  0.0000 </r>
        <r>  0.2107  0.0335  0.0000 </r>
       </set>
       <set comment="band 2">
        <r>  0.1856  0.0517  0.0000 </r>
        <r>  0.1856  0.0517  0.0000 </r>
       </set>
       <set comment="band 3">
        <r>  0.0001  0.1562  0.0000 </r>
        <r>  0.0001  0.1562  0.0000 </r>
       </set>
       <set comment="band 4">
        <r>  0.0000  0.1975  0.0000 </r>
        <r>  0.0000  0.1975  0.0000 </r>
       </set>
       <set comment="band 5">
        <r>  0.0519  0.0407  0.0000 </r>
        <r>  0.0519  0.0407  0.0000 </r>
       </set>
       <set comment="band 6">
        <r>  0.0278  0.0834  0.0000 </r>
        <r>  0.0278  0.0834  0.0000 </r>
       </set>
       <set comment="band 7">
        <r>  0.0000  0.1623  0.0000 </r>
        <r>  0.0000  0.1624  0.0000 </r>
       </set>
       <set comment="band 8">
        <r>  0.0356  0.0906  0.0000 </r>
        <r>  0.0243  0.1067  0.0000 </r>
       </set>
      </set>
      <set comment="kpoint 184">
       <set comment="band 1">
        <r>  0.2096  0.0344  0.0000 </r>
        <r>  0.2096  0.0344  0.0000 </r>
       </set>
       <set comment="band 2">
        <r>  0.1865  0.0508  0.0000 </r>
        <r>  0.1865  0.0508  0.0000 </r>
       </set>
       <set comment="band 3">
        <r>  0.0003  0.1573  0.0000 </r>
        <r>  0.0003  0.1573  0.0000 </r>
       </set>
       <set comment="band 4">
        <r>  0.0000  0.1972  0.0000 </r>
        <r>  0.0000  0.1972  0.0000 </r>
       </set>
       <set comment="band 5">
        <r>  0.0518  0.0402  0.0000 </r>
        <r>  0.0518  0.0402  0.0000 </r>
       </set>
       <set comment="band 6">
        <r>  0.0295  0.0817  0.0000 </r>
        <r>  0.0295  0.0817  0.0000 </r>
       </set>
       <set comment="band 7">
        <r>  0.0000  0.1643  0.0000 </r>
        <r>  0.0000  0.1643  0.0000 </r>
       </set>
       <set comment="band 8">
        <r>  0.0461  0.1520  0.0000 </r>
        <r>  0.0305  0.1716  0.0000 </r>
       </set>
      </set>
      <set comment="kpoint 185">
       <set comment="band 1">
        <r>  0.2083  0.0354  0.0000 </r>
        <r>  0.2083  0.0354  0.0000 </r>
       </set>
       <set comment="band 2">
        <r>  0.1873  0.0500  0.0000 </r>
        <r>  0.1873  0.0500  0.0000 </r>
       </set>
       <set comment="band 3">
        <r>  0.0006  0.1586  0.0000 </r>
        <r>  0.0006  0.1586  0.0000 </r>
       </set>
       <set comment="band 4">
        <r>  0.0000  0.1969  0.0000 </r>
        <r>  0.0000  0.1969  0.0000 </r>
       </set>
       <set comment="band 5">
        <r>  0.0517  0.0397  0.0000 </r>
        <r>  0.0517  0.0397  0.0000 </r>
       </set>
       <set comment="band 6">
        <r>  0.0311  0.0798  0.0000 </r>
        <r>  0.0311  0.0798  0.0000 </r>
       </set>
       <set comment="band 7">
        <r>  0.0000  0.1664  0.0000 </r>
        <r>  0.0000  0.1664  0.0000 </r>
       </set>
       <set comment="band 8">
        <r>  0.0290  0.1809  0.0000 </r>
        <r>  0.0452  0.1605  0.0000 </r>
       </set>
      </set>
      <set comment="kpoint 186">
       <set comment="band 1">
        <r>  0.2070  0.0363  0.0000 </r>
        <r>  0.2070  0.0363  0.0000 </r>
       </set>
       <set comment="band 2">
        <r>  0.1881  0.0492  0.0000 </r>
        <r>  0.1881  0.0492  0.0000 </r>
       </set>
       <set comment="band 3">
        <r>  0.0010  0.1601  0.0000 </r>
        <r>  0.0010  0.1601  0.0000 </r>
       </set>
       <set comment="band 4">
        <r>  0.0000  0.1966  0.0000 </r>
        <r>  0.0000  0.1966  0.0000 </r>
       </set>
       <set comment="band 5">
        <r>  0.0516  0.0392  0.0000 </r>
        <r>  0.0516  0.0392  0.0000 </r>
       </set>
       <set comment="band 6">
        <r>  0.0327  0.0777  0.0000 </r>
        <r>  0.0327  0.0777  0.0000 </r>
       </set>
       <set comment="band 7">
        <r>  0.0000  0.1689  0.0000 </r>
        <r>  0.0000  0.1689  0.0000 </r>
       </set>
       <set comment="band 8">
        <r>  0.0488  0.1735  0.0000 </r>
        <r>  0.0237  0.2034  0.0000 </r>
       </set>
      </set>
      <set comment="kpoint 187">
       <set comment="band 1">
        <r>  0.2055  0.0372  0.0000 </r>
        <r>  0.2055  0.0372  0.0000 </r>
       </set>
       <set comment="band 2">
        <r>  0.1888  0.0485  0.0000 </r>
        <r>  0.1888  0.0485  0.0000 </r>
       </set>
       <set comment="band 3">
        <r>  0.0014  0.1617  0.0000 </r>
        <r>  0.0014  0.1617  0.0000 </r>
       </set>
       <set comment="band 4">
        <r>  0.0000  0.1964  0.0000 </r>
        <r>  0.0000  0.1964  0.0000 </r>
       </set>
       <set comment="band 5">
        <r>  0.0515  0.0388  0.0000 </r>
        <r>  0.0515  0.0388  0.0000 </r>
       </set>
       <set comment="band 6">
        <r>  0.0343  0.0753  0.0000 </r>
        <r>  0.0343  0.0753  0.0000 </r>
       </set>
       <set comment="band 7">
        <r>  0.0000  0.1717  0.0000 </r>
        <r>  0.0000  0.1717  0.0000 </r>
       </set>
       <set comment="band 8">
        <r>  0.0359  0.1991  0.0000 </r>
        <r>  0.0326  0.2027  0.0000 </r>
       </set>
      </set>
      <set comment="kpoint 188">
       <set comment="band 1">
        <r>  0.2041  0.0381  0.0000 </r>
        <r>  0.2041  0.0381  0.0000 </r>
       </set>
       <set comment="band 2">
        <r>  0.1894  0.0478  0.0000 </r>
        <r>  0.1894  0.0478  0.0000 </r>
       </set>
       <set comment="band 3">
        <r>  0.0018  0.1636  0.0000 </r>
        <r>  0.0018  0.1636  0.0000 </r>
       </set>
       <set comment="band 4">
        <r>  0.0000  0.1962  0.0000 </r>
        <r>  0.0000  0.1962  0.0000 </r>
       </set>
       <set comment="band 5">
        <r>  0.0515  0.0384  0.0000 </r>
        <r>  0.0515  0.0384  0.0000 </r>
       </set>
       <set comment="band 6">
        <r>  0.0359  0.0727  0.0000 </r>
        <r>  0.0359  0.0727  0.0000 </r>
       </set>
       <set comment="band 7">
        <r>  0.0000  0.1748  0.0000 </r>
        <r>  0.0000  0.1749  0.0000 </r>
       </set>
       <set comment="band 8">
        <r>  0.0298  0.2050  0.0000 </r>
        <r>  0.0326  0.2024  0.0000 </r>
       </set>
      </set>
      <set comment="kpoint 189">
       <set comment="band 1">
        <r>  0.2026  0.0390  0.0000 </r>
        <r>  0.2026  0.0390  0.0000 </r>
       </set>
       <set comment="band 2">
        <r>  0.1901  0.0472  0.0000 </r>
        <r>  0.1901  0.0472  0.0000 </r>
       </set>
       <set comment="band 3">
        <r>  0.0021  0.1658  0.0000 </r>
        <r>  0.0021  0.1658  0.0000 </r>
       </set>
       <set comment="band 4">
        <r>  0.0000  0.1960  0.0000 </r>
        <r>  0.0000  0.1960  0.0000 </r>
       </set>
       <set comment="band 5">
        <r>  0.0514  0.0381  0.0000 </r>
        <r>  0.0514  0.0381  0.0000 </r>
       </set>
       <set comment="band 6">
        <r>  0.0375  0.0698  0.0000 </r>
        <r>  0.0375  0.0698  0.0000 </r>
       </set>
       <set comment="band 7">
        <r>  0.0000  0.1785  0.0000 </r>
        <r>  0.0000  0.1785  0.0000 </r>
       </set>
       <set comment="band 8">
        <r>  0.0304  0.2058  0.0000 </r>
        <r>  0.0257  0.2106  0.0000 </r>
       </set>
      </set>
      <set comment="kpoint 190">
       <set comment="band 1">
        <r>  0.2012  0.0398  0.0000 </r>
        <r>  0.2012  0.0398  0.0000 </r>
       </set>
       <set comment="band 2">
        <r>  0.1906  0.0466  0.0000 </r>
        <r>  0.1906  0.0466  0.0000 </r>
       </set>
       <set comment="band 3">
        <r>  0.0023  0.1682  0.0000 </r>
        <r>  0.0023  0.1682  0.0000 </r>
       </set>
       <set comment="band 4">
        <r>  0.0000  0.1958  0.0000 </r>
        <r>  0.0000  0.1958  0.0000 </r>
       </set>
       <set comment="band 5">
        <r>  0.0513  0.0377  0.0000 </r>
        <r>  0.0513  0.0377  0.0000 </r>
       </set>
       <set comment="band 6">
        <r>  0.0390  0.0667  0.0000 </r>
        <r>  0.0390  0.0667  0.0000 </r>
       </set>
       <set comment="band 7">
        <r>  0.0000  0.1826  0.0000 </r>
        <r>  0.0000  0.1826  0.0000 </r>
       </set>
       <set comment="band 8">
        <r>  0.0241  0.2133  0.0000 </r>
        <r>  0.0261  0.2118  0.0000 </r>
       </set>
      </set>
      <set comment="kpoint 191">
       <set comment="band 1">
        <r>  0.1998  0.0406  0.0000 </r>
        <r>  0.1998  0.0406  0.0000 </r>
       </set>
       <set comment="band 2">
        <r>  0.1911  0.0461  0.0000 </r>
        <r>  0.1911  0.0461  0.0000 </r>
       </set>
       <set comment="band 3">
        <r>  0.0025  0.1709  0.0000 </r>
        <r>  0.0025  0.1709  0.0000 </r>
       </set>
       <set comment="band 4">
        <r>  0.0000  0.1957  0.0000 </r>
        <r>  0.0000  0.1957  0.0000 </r>
       </set>
       <set comment="band 5">
        <r>  0.0513  0.0374  0.0000 </r>
        <r>  0.0513  0.0374  0.0000 </r>
       </set>
       <set comment="band 6">
        <r>  0.0406  0.0633  0.0000 </r>
        <r>  0.0406  0.0633  0.0000 </r>
       </set>
       <set comment="band 7">
        <r>  0.0000  0.1873  0.0000 </r>
        <r>  0.0000  0.1872  0.0000 </r>
       </set>
       <set comment="band 8">
        <r>  0.0218  0.2164  0.0000 </r>
        <r>  0.0220  0.2162  0.0000 </r>
       </set>
      </set>
      <set comment="kpoint 192">
       <set comment="band 1">
        <r>  0.1985  0.0412  0.0000 </r>
        <r>  0.1985  0.0412  0.0000 </r>
       </set>
       <set comment="band 2">
        <r>  0.1916  0.0457  0.0000 </r>
        <r>  0.1916  0.0457  0.0000 </r>
       </set>
       <set comment="band 3">
        <r>  0.0025  0.1739  0.0000 </r>
        <r>  0.0025  0.1739  0.0000 </r>
       </set>
       <set comment="band 4">
        <r>  0.0000  0.1955  0.0000 </r>
        <r>  0.0000  0.1955  0.0000 </r>
       </set>
       <set comment="band 5">
        <r>  0.0513  0.0372  0.0000 </r>
        <r>  0.0513  0.0372  0.0000 </r>
       </set>
       <set comment="band 6">
        <r>  0.0422  0.0597  0.0000 </r>
        <r>  0.0422  0.0597  0.0000 </r>
       </set>
       <set comment="band 7">
        <r>  0.0000  0.1926  0.0000 </r>
        <r>  0.0000  0.1926  0.0000 </r>
       </set>
       <set comment="band 8">
        <r>  0.0170  0.2204  0.0000 </r>
        <r>  0.0199  0.2192  0.0000 </r>
       </set>
      </set>
      <set comment="kpoint 193">
       <set comment="band 1">
        <r>  0.1973  0.0419  0.0000 </r>
        <r>  0.1973  0.0419  0.0000 </r>
       </set>
       <set comment="band 2">
        <r>  0.1920  0.0453  0.0000 </r>
        <r>  0.1920  0.0453  0.0000 </r>
       </set>
       <set comment="band 3">
        <r>  0.0024  0.1771  0.0000 </r>
        <r>  0.0024  0.1771  0.0000 </r>
       </set>
       <set comment="band 4">
        <r>  0.0000  0.1954  0.0000 </r>
        <r>  0.0000  0.1954  0.0000 </r>
       </set>
       <set comment="band 5">
        <r>  0.0512  0.0369  0.0000 </r>
        <r>  0.0512  0.0369  0.0000 </r>
       </set>
       <set comment="band 6">
        <r>  0.0438  0.0560  0.0000 </r>
        <r>  0.0438  0.0560  0.0000 </r>
       </set>
       <set comment="band 7">
        <r>  0.0000  0.1985  0.0000 </r>
        <r>  0.0000  0.1986  0.0000 </r>
       </set>
       <set comment="band 8">
        <r>  0.0152  0.2238  0.0000 </r>
        <r>  0.0152  0.2237  0.0000 </r>
       </set>
      </set>
      <set comment="kpoint 194">
       <set comment="band 1">
        <r>  0.1963  0.0424  0.0000 </r>
        <r>  0.1963  0.0424  0.0000 </r>
       </set>
       <set comment="band 2">
        <r>  0.1923  0.0449  0.0000 </r>
        <r>  0.1923  0.0449  0.0000 </r>
       </set>
       <set comment="band 3">
        <r>  0.0021  0.1805  0.0000 </r>
        <r>  0.0021  0.1805  0.0000 </r>
       </set>
       <set comment="band 4">
        <r>  0.0000  0.1953  0.0000 </r>
        <r>  0.0000  0.1953  0.0000 </r>
       </set>
       <set comment="band 5">
        <r>  0.0512  0.0367  0.0000 </r>
        <r>  0.0512  0.0367  0.0000 </r>
       </set>
       <set comment="band 6">
        <r>  0.0454  0.0521  0.0000 </r>
        <r>  0.0454  0.0521  0.0000 </r>
       </set>
       <set comment="band 7">
        <r>  0.0000  0.2052  0.0000 </r>
        <r>  0.0000  0.2052  0.0000 </r>
       </set>
       <set comment="band 8">
        <r>  0.0119  0.2272  0.0000 </r>
        <r>  0.0121  0.2274  0.0000 </r>
       </set>
      </set>
      <set comment="kpoint 195">
       <set comment="band 1">
        <r>  0.1954  0.0429  0.0000 </r>
        <r>  0.1954  0.0429  0.0000 </r>
       </set>
       <set comment="band 2">
        <r>  0.1926  0.0446  0.0000 </r>
        <r>  0.1926  0.0446  0.0000 </r>
       </set>
       <set comment="band 3">
        <r>  0.0017  0.1840  0.0000 </r>
        <r>  0.0017  0.1840  0.0000 </r>
       </set>
       <set comment="band 4">
        <r>  0.0000  0.1952  0.0000 </r>
        <r>  0.0000  0.1952  0.0000 </r>
       </set>
       <set comment="band 5">
        <r>  0.0512  0.0366  0.0000 </r>
        <r>  0.0512  0.0366  0.0000 </r>
       </set>
       <set comment="band 6">
        <r>  0.0468  0.0482  0.0000 </r>
        <r>  0.0468  0.0482  0.0000 </r>
       </set>
       <set comment="band 7">
        <r>  0.0000  0.2125  0.0000 </r>
        <r>  0.0000  0.2125  0.0000 </r>
       </set>
       <set comment="band 8">
        <r>  0.0090  0.2310  0.0000 </r>
        <r>  0.0088  0.2302  0.0000 </r>
       </set>
      </set>
      <set comment="kpoint 196">
       <set comment="band 1">
        <r>  0.1946  0.0433  0.0000 </r>
        <r>  0.1946  0.0433  0.0000 </r>
       </set>
       <set comment="band 2">
        <r>  0.1928  0.0444  0.0000 </r>
        <r>  0.1928  0.0444  0.0000 </r>
       </set>
       <set comment="band 3">
        <r>  0.0013  0.1873  0.0000 </r>
        <r>  0.0013  0.1873  0.0000 </r>
       </set>
       <set comment="band 4">
        <r>  0.0000  0.1951  0.0000 </r>
        <r>  0.0000  0.1951  0.0000 </r>
       </set>
       <set comment="band 5">
        <r>  0.0512  0.0364  0.0000 </r>
        <r>  0.0512  0.0364  0.0000 </r>
       </set>
       <set comment="band 6">
        <r>  0.0482  0.0445  0.0000 </r>
        <r>  0.0482  0.0445  0.0000 </r>
       </set>
       <set comment="band 7">
        <r>  0.0000  0.2201  0.0000 </r>
        <r>  0.0000  0.2200  0.0000 </r>
       </set>
       <set comment="band 8">
        <r>  0.0060  0.2337  0.0000 </r>
        <r>  0.0060  0.2337  0.0000 </r>
       </set>
      </set>
      <set comment="kpoint 197">
       <set comment="band 1">
        <r>  0.1940  0.0436  0.0000 </r>
        <r>  0.1940  0.0436  0.0000 </r>
       </set>
       <set comment="band 2">
        <r>  0.1930  0.0442  0.0000 </r>
        <r>  0.1930  0.0442  0.0000 </r>
       </set>
       <set comment="band 3">
        <r>  0.0008  0.1904  0.0000 </r>
        <r>  0.0008  0.1904  0.0000 </r>
       </set>
       <set comment="band 4">
        <r>  0.0000  0.1951  0.0000 </r>
        <r>  0.0000  0.1951  0.0000 </r>
       </set>
       <set comment="band 5">
        <r>  0.0512  0.0363  0.0000 </r>
        <r>  0.0512  0.0363  0.0000 </r>
       </set>
       <set comment="band 6">
        <r>  0.0494  0.0412  0.0000 </r>
        <r>  0.0494  0.0412  0.0000 </r>
       </set>
       <set comment="band 7">
        <r>  0.0000  0.2274  0.0000 </r>
        <r>  0.0000  0.2274  0.0000 </r>
       </set>
       <set comment="band 8">
        <r>  0.0035  0.2363  0.0000 </r>
        <r>  0.0035  0.2363  0.0000 </r>
       </set>
      </set>
      <set comment="kpoint 198">
       <set comment="band 1">
        <r>  0.1936  0.0438  0.0000 </r>
        <r>  0.1936  0.0438  0.0000 </r>
       </set>
       <set comment="band 2">
        <r>  0.1931  0.0441  0.0000 </r>
        <r>  0.1931  0.0441  0.0000 </r>
       </set>
       <set comment="band 3">
        <r>  0.0004  0.1928  0.0000 </r>
        <r>  0.0004  0.1928  0.0000 </r>
       </set>
       <set comment="band 4">
        <r>  0.0000  0.1950  0.0000 </r>
        <r>  0.0000  0.1950  0.0000 </r>
       </set>
       <set comment="band 5">
        <r>  0.0511  0.0363  0.0000 </r>
        <r>  0.0511  0.0363  0.0000 </r>
       </set>
       <set comment="band 6">
        <r>  0.0503  0.0385  0.0000 </r>
        <r>  0.0503  0.0385  0.0000 </r>
       </set>
       <set comment="band 7">
        <r>  0.0000  0.2339  0.0000 </r>
        <r>  0.0000  0.2339  0.0000 </r>
       </set>
       <set comment="band 8">
        <r>  0.0016  0.2382  0.0000 </r>
        <r>  0.0016  0.2383  0.0000 </r>
       </set>
      </set>
      <set comment="kpoint 199">
       <set comment="band 1">
        <r>  0.1933  0.0439  0.0000 </r>
        <r>  0.1933  0.0439  0.0000 </r>
       </set>
       <set comment="band 2">
        <r>  0.1932  0.0440  0.0000 </r>
        <r>  0.1932  0.0440  0.0000 </r>
       </set>
       <set comment="band 3">
        <r>  0.0001  0.1944  0.0000 </r>
        <r>  0.0001  0.1944  0.0000 </r>
       </set>
       <set comment="band 4">
        <r>  0.0000  0.1950  0.0000 </r>
        <r>  0.0000  0.1950  0.0000 </r>
       </set>
       <set comment="band 5">
        <r>  0.0511  0.0362  0.0000 </r>
        <r>  0.0511  0.0362  0.0000 </r>
       </set>
       <set comment="band 6">
        <r>  0.0509  0.0368  0.0000 </r>
        <r>  0.0509  0.0368  0.0000 </r>
       </set>
       <set comment="band 7">
        <r>  0.0000  0.2383  0.0000 </r>
        <r>  0.0000  0.2383  0.0000 </r>
       </set>
       <set comment="band 8">
        <r>  0.0004  0.2395  0.0000 </r>
        <r>  0.0004  0.2395  0.0000 </r>
       </set>
      </set>
      <set comment="kpoint 200">
       <set comment="band 1">
        <r>  0.1932  0.0440  0.0000 </r>
        <r>  0.1933  0.0439  0.0000 </r>
       </set>
       <set comment="band 2">
        <r>  0.1933  0.0439  0.0000 </r>
        <r>  0.1932  0.0440  0.0000 </r>
       </set>
       <set comment="band 3">
        <r>  0.0000  0.1950  0.0000 </r>
        <r>  0.0000  0.1950  0.0000 </r>
       </set>
       <set comment="band 4">
        <r>  0.0000  0.1950  0.0000 </r>
        <r>  0.0000  0.1950  0.0000 </r>
       </set>
       <set comment="band 5">
        <r>  0.0511  0.0362  0.0000 </r>
        <r>  0.0511  0.0362  0.0000 </r>
       </set>
       <set comment="band 6">
        <r>  0.0511  0.0362  0.0000 </r>
        <r>  0.0511  0.0362  0.0000 </r>
       </set>
       <set comment="band 7">
        <r>  0.0000  0.2399  0.0000 </r>
        <r>  0.0000  0.2399  0.0000 </r>
       </set>
       <set comment="band 8">
        <r>  0.0000  0.2399  0.0000 </r>
        <r>  0.0000  0.2400  0.0000 </r>
       </set>
      </set>
     </set>
    </set>
   </array>
  </projected>
 </calculation>
 <structure name="finalpos" >
  <crystal>
   <varray name="basis" >
    <v>       2.73422534       2.73422534       0.00000000 </v>
    <v>       0.00000000       2.73422534       2.73422534 </v>
    <v>       2.73422534       0.00000000       2.73422534 </v>
   </varray>
   <i name="volume">     40.88207282 </i>
   <varray name="rec_basis" >
    <v>       0.18286715       0.18286715      -0.18286715 </v>
    <v>      -0.18286715       0.18286715       0.18286715 </v>
    <v>       0.18286715      -0.18286715       0.18286715 </v>
   </varray>
  </crystal>
  <varray name="positions" >
   <v>       0.00000000       0.00000000       0.00000000 </v>
   <v>       0.25000000       0.25000000       0.25000000 </v>
  </varray>
 </structure>
</modeling>
