 vasp.5.3.5 31Mar14 (build Aug  4 2014 13:16:38) complex                        
  
 executed on     GRPO3GRAPHENEAVX date 2016.04.09  00:34:50
 running on   48 total cores
 distrk:  each k-point on   48 cores,    1 groups
 distr:  one band on NCORES_PER_BAND=   1 cores,   48 groups


--------------------------------------------------------------------------------------------------------


 INCAR:
 POTCAR:    PAW_PBE Al 04Jan2001                  

 ----------------------------------------------------------------------------- 
|                                                                             |
|           W    W    AA    RRRRR   N    N  II  N    N   GGGG   !!!           |
|           W    W   A  A   R    R  NN   N  II  NN   N  G    G  !!!           |
|           W    W  A    A  R    R  N N  N  II  N N  N  G       !!!           |
|           W WW W  AAAAAA  RRRRR   N  N N  II  N  N N  G  GGG   !            |
|           WW  WW  A    A  R   R   N   NN  II  N   NN  G    G                |
|           W    W  A    A  R    R  N    N  II  N    N   GGGG   !!!           |
|                                                                             |
|      For optimal performance we recommend to set                            |
|        NCORE= 4 - approx SQRT( number of cores)                             |
|      NCORE specifies how many cores store one orbital (NPAR=cpu/NCORE).     |
|      This setting can  greatly improve the performance of VASP for DFT.     |
|      The default, NPAR=number of cores might be grossly inefficient         |
|      on modern multi-core architectures or massively parallel machines.     |
|      Do your own testing !!!!                                               |
|      Unfortunately you need to use the default for GW and RPA calculations. |
|      (for HF NCORE is supported but not extensively tested yet)             |
|                                                                             |
 ----------------------------------------------------------------------------- 

 POTCAR:    PAW_PBE Al 04Jan2001                  
   VRHFIN =Al: s2p1                                                             
   LEXCH  = PE                                                                  
   EATOM  =    53.5387 eV,    3.9350 Ry                                         
                                                                                
   TITEL  = PAW_PBE Al 04Jan2001                                                
   LULTRA =        F    use ultrasoft PP ?                                      
   IUNSCR =        1    unscreen: 0-lin 1-nonlin 2-no                           
   RPACOR =    1.500    partial core radius                                     
   POMASS =   26.981; ZVAL   =    3.000    mass and valenz                      
   RCORE  =    1.900    outmost cutoff radius                                   
   RWIGS  =    2.650; RWIGS  =    1.402    wigner-seitz radius (au A)           
   ENMAX  =  240.300; ENMIN  =  180.225 eV                                      
   ICORE  =        2    local potential                                         
   LCOR   =        T    correct aug charges                                     
   LPAW   =        T    paw PP                                                  
   EAUG   =  291.052                                                            
   DEXC   =    0.000                                                            
   RMAX   =    1.939    core radius for proj-oper                               
   RAUG   =    1.300    factor for augmentation sphere                          
   RDEP   =    1.966    radius for radial grids                                 
   RDEPT  =    1.856    core radius for aug-charge                              
                                                                                
   Atomic configuration                                                         
    6 entries                                                                   
     n  l   j            E        occ.                                          
     1  0  0.50     -1511.1048   2.0000                                         
     2  0  0.50      -108.1629   2.0000                                         
     2  1  1.50       -69.6402   6.0000                                         
     3  0  0.50        -7.7528   2.0000                                         
     3  1  1.50        -2.7121   1.0000                                         
     3  2  2.50        -2.7212   0.0000                                         
   Description                                                                  
     l       E           TYP  RCUT    TYP  RCUT                                 
     0     -7.7528455     23  1.900                                             
     0     -3.3096929     23  1.900                                             
     1     -2.7120682     23  1.900                                             
     1     13.6058260     23  1.900                                             
     2     -2.7211652      7  1.900                                             
  local pseudopotential read in
  partial core-charges read in
  partial kinetic energy density read in
  atomic valenz-charges read in
  non local Contribution for L=           0  read in
    real space projection operators read in
  non local Contribution for L=           0  read in
    real space projection operators read in
  non local Contribution for L=           1  read in
    real space projection operators read in
  non local Contribution for L=           1  read in
    real space projection operators read in
    PAW grid and wavefunctions read in
 
   number of l-projection  operators is LMAX  =           4
   number of lm-projection operators is LMMAX =           8
 
  PAW_PBE Al 04Jan2001                  :
 energy of atom  1       EATOM=  -53.5387
 kinetic energy error for atom=    0.0003 (will be added to EATOM!!)
 
 
 POSCAR: Al                                      
  positions in direct lattice
  velocities in cartesian coordinates
 exchange correlation table for  LEXCH =        8
   RHO(1)=    0.500       N(1)  =     2000
   RHO(2)=  100.500       N(2)  =     4000
 


--------------------------------------------------------------------------------------------------------


 ion  position               nearest neighbor table
   1  0.000  0.000  0.000-   2 2.86   3 2.86   4 2.86   2 2.86   3 2.86   2 2.86   4 2.86   2 2.86
                             3 2.86   4 2.86   3 2.86   4 2.86
   2  0.000  0.500  0.500-   1 2.86   3 2.86   4 2.86   1 2.86   4 2.86   1 2.86   3 2.86   1 2.86
                             3 2.86   4 2.86   4 2.86   3 2.86
   3  0.500  0.000  0.500-   1 2.86   2 2.86   4 2.86   1 2.86   4 2.86   2 2.86   4 2.86   4 2.86
                             1 2.86   2 2.86   1 2.86   2 2.86
   4  0.500  0.500  0.000-   1 2.86   2 2.86   3 2.86   2 2.86   3 2.86   1 2.86   3 2.86   3 2.86
                             1 2.86   2 2.86   2 2.86   1 2.86
 
  LATTYP: Found a simple cubic cell.
 ALAT       =     4.0401645353
  
  Lattice vectors:
  
 A1 = (   4.0401645353,   0.0000000000,   0.0000000000)
 A2 = (   0.0000000000,   4.0401645353,   0.0000000000)
 A3 = (   0.0000000000,   0.0000000000,   4.0401645353)


Analysis of symmetry for initial positions (statically):
=====================================================================
 Subroutine PRICEL returns following result:
 
  LATTYP: Found a face centered cubic cell.
 ALAT       =     4.0401645353
  
  Lattice vectors:
  
 A1 = (   2.0200822676,   2.0200822676,   0.0000000000)
 A2 = (   2.0200822676,   0.0000000000,  -2.0200822676)
 A3 = (   0.0000000000,   2.0200822676,  -2.0200822676)
 
   4 primitive cells build up your supercell.
 

 Routine SETGRP: Setting up the symmetry group for a 
 simple cubic supercell.


 Subroutine GETGRP returns: Found 48 space group operations
 (whereof 48 operations were pure point group operations)
 out of a pool of 48 trial point group operations.


The static configuration has the point symmetry O_h .


Analysis of symmetry for dynamics (positions and initial velocities):
=====================================================================
 Subroutine PRICEL returns following result:
 
  LATTYP: Found a face centered cubic cell.
 ALAT       =     4.0401645353
  
  Lattice vectors:
  
 A1 = (   2.0200822676,   2.0200822676,   0.0000000000)
 A2 = (   2.0200822676,   0.0000000000,  -2.0200822676)
 A3 = (   0.0000000000,   2.0200822676,  -2.0200822676)
 
   4 primitive cells build up your supercell.
 

 Routine SETGRP: Setting up the symmetry group for a 
 simple cubic supercell.


 Subroutine GETGRP returns: Found 48 space group operations
 (whereof 48 operations were pure point group operations)
 out of a pool of 48 trial point group operations.


The dynamic configuration has the point symmetry O_h .
 
 
 KPOINTS: Automatic mesh                          

Automatic generation of k-mesh.
Space group operators:
 irot       det(A)        alpha          n_x          n_y          n_z        tau_x        tau_y        tau_z
    1     1.000000     0.000000     1.000000     0.000000     0.000000     0.000000     0.000000     0.000000
    2    -1.000000     0.000000     1.000000     0.000000     0.000000     0.000000     0.000000     0.000000
    3     1.000000   120.000000    -0.577350    -0.577350    -0.577350     0.000000     0.000000     0.000000
    4    -1.000000   120.000000    -0.577350    -0.577350    -0.577350     0.000000     0.000000     0.000000
    5     1.000000   120.000000     0.577350     0.577350     0.577350     0.000000     0.000000     0.000000
    6    -1.000000   120.000000     0.577350     0.577350     0.577350     0.000000     0.000000     0.000000
    7     1.000000    90.000000     0.000000     0.000000    -1.000000     0.000000     0.000000     0.000000
    8    -1.000000    90.000000     0.000000     0.000000    -1.000000     0.000000     0.000000     0.000000
    9     1.000000   180.000000     0.000000     0.707107     0.707107     0.000000     0.000000     0.000000
   10    -1.000000   180.000000     0.000000     0.707107     0.707107     0.000000     0.000000     0.000000
   11     1.000000    90.000000     0.000000     1.000000     0.000000     0.000000     0.000000     0.000000
   12    -1.000000    90.000000     0.000000     1.000000     0.000000     0.000000     0.000000     0.000000
   13     1.000000   180.000000     0.000000     0.000000     1.000000     0.000000     0.000000     0.000000
   14    -1.000000   180.000000     0.000000     0.000000     1.000000     0.000000     0.000000     0.000000
   15     1.000000   120.000000    -0.577350     0.577350     0.577350     0.000000     0.000000     0.000000
   16    -1.000000   120.000000    -0.577350     0.577350     0.577350     0.000000     0.000000     0.000000
   17     1.000000   120.000000    -0.577350     0.577350    -0.577350     0.000000     0.000000     0.000000
   18    -1.000000   120.000000    -0.577350     0.577350    -0.577350     0.000000     0.000000     0.000000
   19     1.000000    90.000000     0.000000     0.000000     1.000000     0.000000     0.000000     0.000000
   20    -1.000000    90.000000     0.000000     0.000000     1.000000     0.000000     0.000000     0.000000
   21     1.000000    90.000000    -1.000000     0.000000     0.000000     0.000000     0.000000     0.000000
   22    -1.000000    90.000000    -1.000000     0.000000     0.000000     0.000000     0.000000     0.000000
   23     1.000000   180.000000     0.707107     0.000000     0.707107     0.000000     0.000000     0.000000
   24    -1.000000   180.000000     0.707107     0.000000     0.707107     0.000000     0.000000     0.000000
   25     1.000000   120.000000     0.577350    -0.577350     0.577350     0.000000     0.000000     0.000000
   26    -1.000000   120.000000     0.577350    -0.577350     0.577350     0.000000     0.000000     0.000000
   27     1.000000   120.000000    -0.577350    -0.577350     0.577350     0.000000     0.000000     0.000000
   28    -1.000000   120.000000    -0.577350    -0.577350     0.577350     0.000000     0.000000     0.000000
   29     1.000000   180.000000     1.000000     0.000000     0.000000     0.000000     0.000000     0.000000
   30    -1.000000   180.000000     1.000000     0.000000     0.000000     0.000000     0.000000     0.000000
   31     1.000000    90.000000     0.000000    -1.000000     0.000000     0.000000     0.000000     0.000000
   32    -1.000000    90.000000     0.000000    -1.000000     0.000000     0.000000     0.000000     0.000000
   33     1.000000   180.000000     0.707107     0.707107     0.000000     0.000000     0.000000     0.000000
   34    -1.000000   180.000000     0.707107     0.707107     0.000000     0.000000     0.000000     0.000000
   35     1.000000    90.000000     1.000000     0.000000     0.000000     0.000000     0.000000     0.000000
   36    -1.000000    90.000000     1.000000     0.000000     0.000000     0.000000     0.000000     0.000000
   37     1.000000   120.000000     0.577350    -0.577350    -0.577350     0.000000     0.000000     0.000000
   38    -1.000000   120.000000     0.577350    -0.577350    -0.577350     0.000000     0.000000     0.000000
   39     1.000000   180.000000     0.000000     1.000000     0.000000     0.000000     0.000000     0.000000
   40    -1.000000   180.000000     0.000000     1.000000     0.000000     0.000000     0.000000     0.000000
   41     1.000000   120.000000     0.577350     0.577350    -0.577350     0.000000     0.000000     0.000000
   42    -1.000000   120.000000     0.577350     0.577350    -0.577350     0.000000     0.000000     0.000000
   43     1.000000   180.000000     0.000000    -0.707107     0.707107     0.000000     0.000000     0.000000
   44    -1.000000   180.000000     0.000000    -0.707107     0.707107     0.000000     0.000000     0.000000
   45     1.000000   180.000000     0.707107    -0.707107     0.000000     0.000000     0.000000     0.000000
   46    -1.000000   180.000000     0.707107    -0.707107     0.000000     0.000000     0.000000     0.000000
   47     1.000000   180.000000     0.707107     0.000000    -0.707107     0.000000     0.000000     0.000000
   48    -1.000000   180.000000     0.707107     0.000000    -0.707107     0.000000     0.000000     0.000000
 
 Subroutine IBZKPT returns following result:
 ===========================================
 
 Found     84 irreducible k-points:
 
 Following reciprocal coordinates:
            Coordinates               Weight
  0.000000  0.000000  0.000000      1.000000
  0.083333  0.000000  0.000000      6.000000
  0.166667  0.000000  0.000000      6.000000
  0.250000  0.000000  0.000000      6.000000
  0.333333  0.000000  0.000000      6.000000
  0.416667  0.000000  0.000000      6.000000
  0.500000  0.000000  0.000000      3.000000
  0.083333  0.083333  0.000000     12.000000
  0.166667  0.083333  0.000000     24.000000
  0.250000  0.083333  0.000000     24.000000
  0.333333  0.083333  0.000000     24.000000
  0.416667  0.083333  0.000000     24.000000
  0.500000  0.083333  0.000000     12.000000
  0.166667  0.166667  0.000000     12.000000
  0.250000  0.166667  0.000000     24.000000
  0.333333  0.166667  0.000000     24.000000
  0.416667  0.166667  0.000000     24.000000
  0.500000  0.166667  0.000000     12.000000
  0.250000  0.250000  0.000000     12.000000
  0.333333  0.250000  0.000000     24.000000
  0.416667  0.250000  0.000000     24.000000
  0.500000  0.250000  0.000000     12.000000
  0.333333  0.333333  0.000000     12.000000
  0.416667  0.333333  0.000000     24.000000
  0.500000  0.333333  0.000000     12.000000
  0.416667  0.416667  0.000000     12.000000
  0.500000  0.416667  0.000000     12.000000
  0.500000  0.500000  0.000000      3.000000
  0.083333  0.083333  0.083333      8.000000
  0.166667  0.083333  0.083333     24.000000
  0.250000  0.083333  0.083333     24.000000
  0.333333  0.083333  0.083333     24.000000
  0.416667  0.083333  0.083333     24.000000
  0.500000  0.083333  0.083333     12.000000
  0.166667  0.166667  0.083333     24.000000
  0.250000  0.166667  0.083333     48.000000
  0.333333  0.166667  0.083333     48.000000
  0.416667  0.166667  0.083333     48.000000
  0.500000  0.166667  0.083333     24.000000
  0.250000  0.250000  0.083333     24.000000
  0.333333  0.250000  0.083333     48.000000
  0.416667  0.250000  0.083333     48.000000
  0.500000  0.250000  0.083333     24.000000
  0.333333  0.333333  0.083333     24.000000
  0.416667  0.333333  0.083333     48.000000
  0.500000  0.333333  0.083333     24.000000
  0.416667  0.416667  0.083333     24.000000
  0.500000  0.416667  0.083333     24.000000
  0.500000  0.500000  0.083333      6.000000
  0.166667  0.166667  0.166667      8.000000
  0.250000  0.166667  0.166667     24.000000
  0.333333  0.166667  0.166667     24.000000
  0.416667  0.166667  0.166667     24.000000
  0.500000  0.166667  0.166667     12.000000
  0.250000  0.250000  0.166667     24.000000
  0.333333  0.250000  0.166667     48.000000
  0.416667  0.250000  0.166667     48.000000
  0.500000  0.250000  0.166667     24.000000
  0.333333  0.333333  0.166667     24.000000
  0.416667  0.333333  0.166667     48.000000
  0.500000  0.333333  0.166667     24.000000
  0.416667  0.416667  0.166667     24.000000
  0.500000  0.416667  0.166667     24.000000
  0.500000  0.500000  0.166667      6.000000
  0.250000  0.250000  0.250000      8.000000
  0.333333  0.250000  0.250000     24.000000
  0.416667  0.250000  0.250000     24.000000
  0.500000  0.250000  0.250000     12.000000
  0.333333  0.333333  0.250000     24.000000
  0.416667  0.333333  0.250000     48.000000
  0.500000  0.333333  0.250000     24.000000
  0.416667  0.416667  0.250000     24.000000
  0.500000  0.416667  0.250000     24.000000
  0.500000  0.500000  0.250000      6.000000
  0.333333  0.333333  0.333333      8.000000
  0.416667  0.333333  0.333333     24.000000
  0.500000  0.333333  0.333333     12.000000
  0.416667  0.416667  0.333333     24.000000
  0.500000  0.416667  0.333333     24.000000
  0.500000  0.500000  0.333333      6.000000
  0.416667  0.416667  0.416667      8.000000
  0.500000  0.416667  0.416667     12.000000
  0.500000  0.500000  0.416667      6.000000
  0.500000  0.500000  0.500000      1.000000
 
 Following cartesian coordinates:
            Coordinates               Weight
  0.000000  0.000000  0.000000      1.000000
  0.020626  0.000000  0.000000      6.000000
  0.041252  0.000000  0.000000      6.000000
  0.061879  0.000000  0.000000      6.000000
  0.082505  0.000000  0.000000      6.000000
  0.103131  0.000000  0.000000      6.000000
  0.123757  0.000000  0.000000      3.000000
  0.020626  0.020626  0.000000     12.000000
  0.041252  0.020626  0.000000     24.000000
  0.061879  0.020626  0.000000     24.000000
  0.082505  0.020626  0.000000     24.000000
  0.103131  0.020626  0.000000     24.000000
  0.123757  0.020626  0.000000     12.000000
  0.041252  0.041252  0.000000     12.000000
  0.061879  0.041252  0.000000     24.000000
  0.082505  0.041252  0.000000     24.000000
  0.103131  0.041252  0.000000     24.000000
  0.123757  0.041252  0.000000     12.000000
  0.061879  0.061879  0.000000     12.000000
  0.082505  0.061879  0.000000     24.000000
  0.103131  0.061879  0.000000     24.000000
  0.123757  0.061879  0.000000     12.000000
  0.082505  0.082505  0.000000     12.000000
  0.103131  0.082505  0.000000     24.000000
  0.123757  0.082505  0.000000     12.000000
  0.103131  0.103131  0.000000     12.000000
  0.123757  0.103131  0.000000     12.000000
  0.123757  0.123757  0.000000      3.000000
  0.020626  0.020626  0.020626      8.000000
  0.041252  0.020626  0.020626     24.000000
  0.061879  0.020626  0.020626     24.000000
  0.082505  0.020626  0.020626     24.000000
  0.103131  0.020626  0.020626     24.000000
  0.123757  0.020626  0.020626     12.000000
  0.041252  0.041252  0.020626     24.000000
  0.061879  0.041252  0.020626     48.000000
  0.082505  0.041252  0.020626     48.000000
  0.103131  0.041252  0.020626     48.000000
  0.123757  0.041252  0.020626     24.000000
  0.061879  0.061879  0.020626     24.000000
  0.082505  0.061879  0.020626     48.000000
  0.103131  0.061879  0.020626     48.000000
  0.123757  0.061879  0.020626     24.000000
  0.082505  0.082505  0.020626     24.000000
  0.103131  0.082505  0.020626     48.000000
  0.123757  0.082505  0.020626     24.000000
  0.103131  0.103131  0.020626     24.000000
  0.123757  0.103131  0.020626     24.000000
  0.123757  0.123757  0.020626      6.000000
  0.041252  0.041252  0.041252      8.000000
  0.061879  0.041252  0.041252     24.000000
  0.082505  0.041252  0.041252     24.000000
  0.103131  0.041252  0.041252     24.000000
  0.123757  0.041252  0.041252     12.000000
  0.061879  0.061879  0.041252     24.000000
  0.082505  0.061879  0.041252     48.000000
  0.103131  0.061879  0.041252     48.000000
  0.123757  0.061879  0.041252     24.000000
  0.082505  0.082505  0.041252     24.000000
  0.103131  0.082505  0.041252     48.000000
  0.123757  0.082505  0.041252     24.000000
  0.103131  0.103131  0.041252     24.000000
  0.123757  0.103131  0.041252     24.000000
  0.123757  0.123757  0.041252      6.000000
  0.061879  0.061879  0.061879      8.000000
  0.082505  0.061879  0.061879     24.000000
  0.103131  0.061879  0.061879     24.000000
  0.123757  0.061879  0.061879     12.000000
  0.082505  0.082505  0.061879     24.000000
  0.103131  0.082505  0.061879     48.000000
  0.123757  0.082505  0.061879     24.000000
  0.103131  0.103131  0.061879     24.000000
  0.123757  0.103131  0.061879     24.000000
  0.123757  0.123757  0.061879      6.000000
  0.082505  0.082505  0.082505      8.000000
  0.103131  0.082505  0.082505     24.000000
  0.123757  0.082505  0.082505     12.000000
  0.103131  0.103131  0.082505     24.000000
  0.123757  0.103131  0.082505     24.000000
  0.123757  0.123757  0.082505      6.000000
  0.103131  0.103131  0.103131      8.000000
  0.123757  0.103131  0.103131     12.000000
  0.123757  0.123757  0.103131      6.000000
  0.123757  0.123757  0.123757      1.000000
 


--------------------------------------------------------------------------------------------------------




 Dimension of arrays:
   k-points           NKPTS =     84   k-points in BZ     NKDIM =     84   number of bands    NBANDS=     48
   number of dos      NEDOS =   2000   number of ions     NIONS =      4
   non local maximal  LDIM  =      4   non local SUM 2l+1 LMDIM =      8
   total plane-waves  NPLWV =  27000
   max r-space proj   IRMAX =      1   max aug-charges    IRDMAX= 127660
   dimension x,y,z NGX =    30 NGY =   30 NGZ =   30
   dimension x,y,z NGXF=    60 NGYF=   60 NGZF=   60
   support grid    NGXF=   120 NGYF=  120 NGZF=  120
   ions per type =               4
 NGX,Y,Z   is equivalent  to a cutoff of  12.34, 12.34, 12.34 a.u.
 NGXF,Y,Z  is equivalent  to a cutoff of  24.69, 24.69, 24.69 a.u.


 I would recommend the setting:
   dimension x,y,z NGX =    29 NGY =   29 NGZ =   29
 SYSTEM =  unknown system                          
 POSCAR =  Al                                      

 Startparameter for this run:
   NWRITE =      2    write-flag & timer
   PREC   = accura    normal or accurate (medium, high low for compatibility)
   ISTART =      1    job   : 0-new  1-cont  2-samecut
   ICHARG =      0    charge: 1-file 2-atom 10-const
   ISPIN  =      1    spin polarized calculation?
   LNONCOLLINEAR =      F non collinear calculations
   LSORBIT =      F    spin-orbit coupling
   INIWAV =      1    electr: 0-lowe 1-rand  2-diag
   LASPH  =      T    aspherical Exc in radial PAW
   METAGGA=      F    non-selfconsistent MetaGGA calc.

 Electronic Relaxation 1
   ENCUT  =  500.0 eV  36.75 Ry    6.06 a.u.   7.37  7.37  7.37*2*pi/ulx,y,z
   ENINI  =  500.0     initial cutoff
   ENAUG  =  291.1 eV  augmentation charge cutoff
   NELM   =     60;   NELMIN=  2; NELMDL=  0     # of ELM steps 
   EDIFF  = 0.1E-04   stopping-criterion for ELM
   LREAL  =      F    real-space projection
   NLSPLINE    = F    spline interpolate recip. space projectors
   LCOMPAT=      F    compatible to vasp.4.4
   GGA_COMPAT  = T    GGA compatible to vasp.4.4-vasp.4.6
   LMAXPAW     = -100 max onsite density
   LMAXMIX     =    2 max onsite mixed and CHGCAR
   VOSKOWN=      0    Vosko Wilk Nusair interpolation
   ROPT   =    0.00000
 Ionic relaxation
   EDIFFG = 0.1E-03   stopping-criterion for IOM
   NSW    =      0    number of steps for IOM
   NBLOCK =      1;   KBLOCK =      1    inner block; outer block 
   IBRION =     -1    ionic relax: 0-MD 1-quasi-New 2-CG
   NFREE  =      0    steps in history (QN), initial steepest desc. (CG)
   ISIF   =      2    stress and relaxation
   IWAVPR =     10    prediction:  0-non 1-charg 2-wave 3-comb
   ISYM   =      2    0-nonsym 1-usesym 2-fastsym
   LCORR  =      T    Harris-Foulkes like correction to forces

   POTIM  = 0.5000    time-step for ionic-motion
   TEIN   =    0.0    initial temperature
   TEBEG  =    0.0;   TEEND  =   0.0 temperature during run
   SMASS  =  -3.00    Nose mass-parameter (am)
   estimated Nose-frequenzy (Omega)   =  0.10E-29 period in steps =****** mass=  -0.373E-27a.u.
   SCALEE = 1.0000    scale energy and forces
   NPACO  =    256;   APACO  = 16.0  distance and # of slots for P.C.
   PSTRESS=    0.0 pullay stress

  Mass of Ions in am
   POMASS =  26.98
  Ionic Valenz
   ZVAL   =   3.00
  Atomic Wigner-Seitz radii
   RWIGS  =  -1.00
  virtual crystal weights 
   VCA    =   1.00
   NELECT =      12.0000    total number of electrons
   NUPDOWN=      -1.0000    fix difference up-down

 DOS related values:
   EMIN   =  10.00;   EMAX   =-10.00  energy-range for DOS
   EFERMI =   0.00
   ISMEAR =     1;   SIGMA  =   0.01  broadening in eV -4-tet -1-fermi 0-gaus

 Electronic relaxation 2 (details)
   IALGO  =     38    algorithm
   LDIAG  =      T    sub-space diagonalisation (order eigenvalues)
   LSUBROT=      F    optimize rotation matrix (better conditioning)
   TURBO    =      0    0=normal 1=particle mesh
   IRESTART =      0    0=no restart 2=restart with 2 vectors
   NREBOOT  =      0    no. of reboots
   NMIN     =      0    reboot dimension
   EREF     =   0.00    reference energy to select bands
   IMIX   =      4    mixing-type and parameters
     AMIX     =   0.40;   BMIX     =  1.00
     AMIX_MAG =   1.60;   BMIX_MAG =  1.00
     AMIN     =   0.10
     WC   =   100.;   INIMIX=   1;  MIXPRE=   1;  MAXMIX= -45

 Intra band minimization:
   WEIMIN = 0.0000     energy-eigenvalue tresh-hold
   EBREAK =  0.52E-07  absolut break condition
   DEPER  =   0.30     relativ break condition  

   TIME   =   0.40     timestep for ELM

  volume/ion in A,a.u.               =      16.49       111.26
  Fermi-wavevector in a.u.,A,eV,Ry     =   0.927690  1.753080 11.709292  0.860609
  Thomas-Fermi vector in A             =   2.053787
 
 Write flags
   LWAVE  =      T    write WAVECAR
   LCHARG =      F    write CHGCAR
   LVTOT  =      F    write LOCPOT, total local potential
   LVHAR  =      F    write LOCPOT, Hartree potential only
   LELF   =      F    write electronic localiz. function (ELF)
   LORBIT =      0    0 simple, 1 ext, 2 COOP (PROOUT)


 Dipole corrections
   LMONO  =      F    monopole corrections only (constant potential shift)
   LDIPOL =      F    correct potential (dipole corrections)
   IDIPOL =      0    1-x, 2-y, 3-z, 4-all directions 
   EPSILON=  1.0000000 bulk dielectric constant

 Exchange correlation treatment:
   GGA     =    --    GGA type
   LEXCH   =     8    internal setting for exchange type
   VOSKOWN=      0    Vosko Wilk Nusair interpolation
   LHFCALC =     F    Hartree Fock is set to
   LHFONE  =     F    Hartree Fock one center treatment
   AEXX    =    0.0000 exact exchange contribution

 Linear response parameters
   LEPSILON=     F    determine dielectric tensor
   LRPA    =     F    only Hartree local field effects (RPA)
   LNABLA  =     F    use nabla operator in PAW spheres
   LVEL    =     F    velocity operator in full k-point grid
   LINTERFAST=   F  fast interpolation
   KINTER  =     0    interpolate to denser k-point grid
   CSHIFT  =0.1000    complex shift for real part using Kramers Kronig
   OMEGAMAX=  -1.0    maximum frequency
   DEG_THRESHOLD= 0.2000000E-02 threshold for treating states as degnerate
   RTIME   =    0.100 relaxation time in fs

 Orbital magnetization related:
   ORBITALMAG=     F  switch on orbital magnetization
   LCHIMAG   =     F  perturbation theory with respect to B field
   DQ        =  0.001000  dq finite difference perturbation B field



--------------------------------------------------------------------------------------------------------


 Static calculation
 charge density and potential will be updated during run
 non-spin polarized calculation
 Variant of blocked Davidson
 Davidson routine will perform the subspace rotation
 perform sub-space diagonalisation
    after iterative eigenvector-optimisation
 modified Broyden-mixing scheme, WC =      100.0
 initial mixing is a Kerker type mixing with AMIX =  0.4000 and BMIX =      1.0000
 Hartree-type preconditioning will be used
 using additional bands           42
 reciprocal scheme for non local part
 use partial core corrections
 calculate Harris-corrections to forces 
   (improved forces if not selfconsistent)
 use gradient corrections 
 use of overlap-Matrix (Vanderbilt PP)
 Methfessel and Paxton  Order N= 1 SIGMA  =   0.01


--------------------------------------------------------------------------------------------------------


  energy-cutoff  :      500.00
  volume of cell :       65.95
      direct lattice vectors                 reciprocal lattice vectors
     4.040164535  0.000000000  0.000000000     0.247514672  0.000000000  0.000000000
     0.000000000  4.040164535  0.000000000     0.000000000  0.247514672  0.000000000
     0.000000000  0.000000000  4.040164535     0.000000000  0.000000000  0.247514672

  length of vectors
     4.040164535  4.040164535  4.040164535     0.247514672  0.247514672  0.247514672


 
 old parameters found on file WAVECAR:
  energy-cutoff  :      500.00
  volume of cell :       16.49
      direct lattice vectors                 reciprocal lattice vectors
     2.856827736  0.000000000  0.000000000     0.350038607 -0.202094884 -0.142902663
     1.428413868  2.474085393  0.000000000     0.000000000  0.404189768 -0.142902663
     1.428413868  0.824695131  2.332590079     0.000000000  0.000000000  0.428707988

  length of vectors

 
 k-points in units of 2pi/SCALE and weight: Automatic mesh                          
   0.00000000  0.00000000  0.00000000       0.001
   0.02062622  0.00000000  0.00000000       0.003
   0.04125245  0.00000000  0.00000000       0.003
   0.06187867  0.00000000  0.00000000       0.003
   0.08250489  0.00000000  0.00000000       0.003
   0.10313111  0.00000000  0.00000000       0.003
   0.12375734  0.00000000  0.00000000       0.002
   0.02062622  0.02062622  0.00000000       0.007
   0.04125245  0.02062622  0.00000000       0.014
   0.06187867  0.02062622  0.00000000       0.014
   0.08250489  0.02062622  0.00000000       0.014
   0.10313111  0.02062622  0.00000000       0.014
   0.12375734  0.02062622  0.00000000       0.007
   0.04125245  0.04125245  0.00000000       0.007
   0.06187867  0.04125245  0.00000000       0.014
   0.08250489  0.04125245  0.00000000       0.014
   0.10313111  0.04125245  0.00000000       0.014
   0.12375734  0.04125245  0.00000000       0.007
   0.06187867  0.06187867  0.00000000       0.007
   0.08250489  0.06187867  0.00000000       0.014
   0.10313111  0.06187867  0.00000000       0.014
   0.12375734  0.06187867  0.00000000       0.007
   0.08250489  0.08250489  0.00000000       0.007
   0.10313111  0.08250489  0.00000000       0.014
   0.12375734  0.08250489  0.00000000       0.007
   0.10313111  0.10313111  0.00000000       0.007
   0.12375734  0.10313111  0.00000000       0.007
   0.12375734  0.12375734  0.00000000       0.002
   0.02062622  0.02062622  0.02062622       0.005
   0.04125245  0.02062622  0.02062622       0.014
   0.06187867  0.02062622  0.02062622       0.014
   0.08250489  0.02062622  0.02062622       0.014
   0.10313111  0.02062622  0.02062622       0.014
   0.12375734  0.02062622  0.02062622       0.007
   0.04125245  0.04125245  0.02062622       0.014
   0.06187867  0.04125245  0.02062622       0.028
   0.08250489  0.04125245  0.02062622       0.028
   0.10313111  0.04125245  0.02062622       0.028
   0.12375734  0.04125245  0.02062622       0.014
   0.06187867  0.06187867  0.02062622       0.014
   0.08250489  0.06187867  0.02062622       0.028
   0.10313111  0.06187867  0.02062622       0.028
   0.12375734  0.06187867  0.02062622       0.014
   0.08250489  0.08250489  0.02062622       0.014
   0.10313111  0.08250489  0.02062622       0.028
   0.12375734  0.08250489  0.02062622       0.014
   0.10313111  0.10313111  0.02062622       0.014
   0.12375734  0.10313111  0.02062622       0.014
   0.12375734  0.12375734  0.02062622       0.003
   0.04125245  0.04125245  0.04125245       0.005
   0.06187867  0.04125245  0.04125245       0.014
   0.08250489  0.04125245  0.04125245       0.014
   0.10313111  0.04125245  0.04125245       0.014
   0.12375734  0.04125245  0.04125245       0.007
   0.06187867  0.06187867  0.04125245       0.014
   0.08250489  0.06187867  0.04125245       0.028
   0.10313111  0.06187867  0.04125245       0.028
   0.12375734  0.06187867  0.04125245       0.014
   0.08250489  0.08250489  0.04125245       0.014
   0.10313111  0.08250489  0.04125245       0.028
   0.12375734  0.08250489  0.04125245       0.014
   0.10313111  0.10313111  0.04125245       0.014
   0.12375734  0.10313111  0.04125245       0.014
   0.12375734  0.12375734  0.04125245       0.003
   0.06187867  0.06187867  0.06187867       0.005
   0.08250489  0.06187867  0.06187867       0.014
   0.10313111  0.06187867  0.06187867       0.014
   0.12375734  0.06187867  0.06187867       0.007
   0.08250489  0.08250489  0.06187867       0.014
   0.10313111  0.08250489  0.06187867       0.028
   0.12375734  0.08250489  0.06187867       0.014
   0.10313111  0.10313111  0.06187867       0.014
   0.12375734  0.10313111  0.06187867       0.014
   0.12375734  0.12375734  0.06187867       0.003
   0.08250489  0.08250489  0.08250489       0.005
   0.10313111  0.08250489  0.08250489       0.014
   0.12375734  0.08250489  0.08250489       0.007
   0.10313111  0.10313111  0.08250489       0.014
   0.12375734  0.10313111  0.08250489       0.014
   0.12375734  0.12375734  0.08250489       0.003
   0.10313111  0.10313111  0.10313111       0.005
   0.12375734  0.10313111  0.10313111       0.007
   0.12375734  0.12375734  0.10313111       0.003
   0.12375734  0.12375734  0.12375734       0.001
 
 k-points in reciprocal lattice and weights: Automatic mesh                          
   0.00000000  0.00000000  0.00000000       0.001
   0.08333333  0.00000000  0.00000000       0.003
   0.16666667  0.00000000  0.00000000       0.003
   0.25000000  0.00000000  0.00000000       0.003
   0.33333333  0.00000000  0.00000000       0.003
   0.41666667  0.00000000  0.00000000       0.003
   0.50000000  0.00000000  0.00000000       0.002
   0.08333333  0.08333333  0.00000000       0.007
   0.16666667  0.08333333  0.00000000       0.014
   0.25000000  0.08333333  0.00000000       0.014
   0.33333333  0.08333333  0.00000000       0.014
   0.41666667  0.08333333  0.00000000       0.014
   0.50000000  0.08333333  0.00000000       0.007
   0.16666667  0.16666667  0.00000000       0.007
   0.25000000  0.16666667  0.00000000       0.014
   0.33333333  0.16666667  0.00000000       0.014
   0.41666667  0.16666667  0.00000000       0.014
   0.50000000  0.16666667  0.00000000       0.007
   0.25000000  0.25000000  0.00000000       0.007
   0.33333333  0.25000000  0.00000000       0.014
   0.41666667  0.25000000  0.00000000       0.014
   0.50000000  0.25000000  0.00000000       0.007
   0.33333333  0.33333333  0.00000000       0.007
   0.41666667  0.33333333  0.00000000       0.014
   0.50000000  0.33333333  0.00000000       0.007
   0.41666667  0.41666667  0.00000000       0.007
   0.50000000  0.41666667  0.00000000       0.007
   0.50000000  0.50000000  0.00000000       0.002
   0.08333333  0.08333333  0.08333333       0.005
   0.16666667  0.08333333  0.08333333       0.014
   0.25000000  0.08333333  0.08333333       0.014
   0.33333333  0.08333333  0.08333333       0.014
   0.41666667  0.08333333  0.08333333       0.014
   0.50000000  0.08333333  0.08333333       0.007
   0.16666667  0.16666667  0.08333333       0.014
   0.25000000  0.16666667  0.08333333       0.028
   0.33333333  0.16666667  0.08333333       0.028
   0.41666667  0.16666667  0.08333333       0.028
   0.50000000  0.16666667  0.08333333       0.014
   0.25000000  0.25000000  0.08333333       0.014
   0.33333333  0.25000000  0.08333333       0.028
   0.41666667  0.25000000  0.08333333       0.028
   0.50000000  0.25000000  0.08333333       0.014
   0.33333333  0.33333333  0.08333333       0.014
   0.41666667  0.33333333  0.08333333       0.028
   0.50000000  0.33333333  0.08333333       0.014
   0.41666667  0.41666667  0.08333333       0.014
   0.50000000  0.41666667  0.08333333       0.014
   0.50000000  0.50000000  0.08333333       0.003
   0.16666667  0.16666667  0.16666667       0.005
   0.25000000  0.16666667  0.16666667       0.014
   0.33333333  0.16666667  0.16666667       0.014
   0.41666667  0.16666667  0.16666667       0.014
   0.50000000  0.16666667  0.16666667       0.007
   0.25000000  0.25000000  0.16666667       0.014
   0.33333333  0.25000000  0.16666667       0.028
   0.41666667  0.25000000  0.16666667       0.028
   0.50000000  0.25000000  0.16666667       0.014
   0.33333333  0.33333333  0.16666667       0.014
   0.41666667  0.33333333  0.16666667       0.028
   0.50000000  0.33333333  0.16666667       0.014
   0.41666667  0.41666667  0.16666667       0.014
   0.50000000  0.41666667  0.16666667       0.014
   0.50000000  0.50000000  0.16666667       0.003
   0.25000000  0.25000000  0.25000000       0.005
   0.33333333  0.25000000  0.25000000       0.014
   0.41666667  0.25000000  0.25000000       0.014
   0.50000000  0.25000000  0.25000000       0.007
   0.33333333  0.33333333  0.25000000       0.014
   0.41666667  0.33333333  0.25000000       0.028
   0.50000000  0.33333333  0.25000000       0.014
   0.41666667  0.41666667  0.25000000       0.014
   0.50000000  0.41666667  0.25000000       0.014
   0.50000000  0.50000000  0.25000000       0.003
   0.33333333  0.33333333  0.33333333       0.005
   0.41666667  0.33333333  0.33333333       0.014
   0.50000000  0.33333333  0.33333333       0.007
   0.41666667  0.41666667  0.33333333       0.014
   0.50000000  0.41666667  0.33333333       0.014
   0.50000000  0.50000000  0.33333333       0.003
   0.41666667  0.41666667  0.41666667       0.005
   0.50000000  0.41666667  0.41666667       0.007
   0.50000000  0.50000000  0.41666667       0.003
   0.50000000  0.50000000  0.50000000       0.001
 
 position of ions in fractional coordinates (direct lattice) 
   0.00000000  0.00000000  0.00000000
   0.00000000  0.50000000  0.50000000
   0.50000000  0.00000000  0.50000000
   0.50000000  0.50000000  0.00000000
 
 position of ions in cartesian coordinates  (Angst):
   0.00000000  0.00000000  0.00000000
   0.00000000  2.02008227  2.02008227
   2.02008227  0.00000000  2.02008227
   2.02008227  2.02008227  0.00000000
 


--------------------------------------------------------------------------------------------------------


 k-point  1 :   0.0000 0.0000 0.0000  plane waves:    1743
 k-point  2 :   0.0833 0.0000 0.0000  plane waves:    1703
 k-point  3 :   0.1667 0.0000 0.0000  plane waves:    1683
 k-point  4 :   0.2500 0.0000 0.0000  plane waves:    1687
 k-point  5 :   0.3333 0.0000 0.0000  plane waves:    1675
 k-point  6 :   0.4167 0.0000 0.0000  plane waves:    1678
 k-point  7 :   0.5000 0.0000 0.0000  plane waves:    1686
 k-point  8 :   0.0833 0.0833 0.0000  plane waves:    1697
 k-point  9 :   0.1667 0.0833 0.0000  plane waves:    1686
 k-point 10 :   0.2500 0.0833 0.0000  plane waves:    1692
 k-point 11 :   0.3333 0.0833 0.0000  plane waves:    1678
 k-point 12 :   0.4167 0.0833 0.0000  plane waves:    1674
 k-point 13 :   0.5000 0.0833 0.0000  plane waves:    1672
 k-point 14 :   0.1667 0.1667 0.0000  plane waves:    1691
 k-point 15 :   0.2500 0.1667 0.0000  plane waves:    1689
 k-point 16 :   0.3333 0.1667 0.0000  plane waves:    1684
 k-point 17 :   0.4167 0.1667 0.0000  plane waves:    1670
 k-point 18 :   0.5000 0.1667 0.0000  plane waves:    1662
 k-point 19 :   0.2500 0.2500 0.0000  plane waves:    1688
 k-point 20 :   0.3333 0.2500 0.0000  plane waves:    1665
 k-point 21 :   0.4167 0.2500 0.0000  plane waves:    1666
 k-point 22 :   0.5000 0.2500 0.0000  plane waves:    1658
 k-point 23 :   0.3333 0.3333 0.0000  plane waves:    1664
 k-point 24 :   0.4167 0.3333 0.0000  plane waves:    1663
 k-point 25 :   0.5000 0.3333 0.0000  plane waves:    1670
 k-point 26 :   0.4167 0.4167 0.0000  plane waves:    1660
 k-point 27 :   0.5000 0.4167 0.0000  plane waves:    1668
 k-point 28 :   0.5000 0.5000 0.0000  plane waves:    1652
 k-point 29 :   0.0833 0.0833 0.0833  plane waves:    1686
 k-point 30 :   0.1667 0.0833 0.0833  plane waves:    1683
 k-point 31 :   0.2500 0.0833 0.0833  plane waves:    1689
 k-point 32 :   0.3333 0.0833 0.0833  plane waves:    1682
 k-point 33 :   0.4167 0.0833 0.0833  plane waves:    1682
 k-point 34 :   0.5000 0.0833 0.0833  plane waves:    1674
 k-point 35 :   0.1667 0.1667 0.0833  plane waves:    1685
 k-point 36 :   0.2500 0.1667 0.0833  plane waves:    1677
 k-point 37 :   0.3333 0.1667 0.0833  plane waves:    1673
 k-point 38 :   0.4167 0.1667 0.0833  plane waves:    1673
 k-point 39 :   0.5000 0.1667 0.0833  plane waves:    1670
 k-point 40 :   0.2500 0.2500 0.0833  plane waves:    1674
 k-point 41 :   0.3333 0.2500 0.0833  plane waves:    1669
 k-point 42 :   0.4167 0.2500 0.0833  plane waves:    1673
 k-point 43 :   0.5000 0.2500 0.0833  plane waves:    1672
 k-point 44 :   0.3333 0.3333 0.0833  plane waves:    1667
 k-point 45 :   0.4167 0.3333 0.0833  plane waves:    1667
 k-point 46 :   0.5000 0.3333 0.0833  plane waves:    1670
 k-point 47 :   0.4167 0.4167 0.0833  plane waves:    1667
 k-point 48 :   0.5000 0.4167 0.0833  plane waves:    1668
 k-point 49 :   0.5000 0.5000 0.0833  plane waves:    1664
 k-point 50 :   0.1667 0.1667 0.1667  plane waves:    1683
 k-point 51 :   0.2500 0.1667 0.1667  plane waves:    1667
 k-point 52 :   0.3333 0.1667 0.1667  plane waves:    1678
 k-point 53 :   0.4167 0.1667 0.1667  plane waves:    1679
 k-point 54 :   0.5000 0.1667 0.1667  plane waves:    1664
 k-point 55 :   0.2500 0.2500 0.1667  plane waves:    1672
 k-point 56 :   0.3333 0.2500 0.1667  plane waves:    1670
 k-point 57 :   0.4167 0.2500 0.1667  plane waves:    1671
 k-point 58 :   0.5000 0.2500 0.1667  plane waves:    1676
 k-point 59 :   0.3333 0.3333 0.1667  plane waves:    1673
 k-point 60 :   0.4167 0.3333 0.1667  plane waves:    1670
 k-point 61 :   0.5000 0.3333 0.1667  plane waves:    1676
 k-point 62 :   0.4167 0.4167 0.1667  plane waves:    1677
 k-point 63 :   0.5000 0.4167 0.1667  plane waves:    1670
 k-point 64 :   0.5000 0.5000 0.1667  plane waves:    1672
 k-point 65 :   0.2500 0.2500 0.2500  plane waves:    1677
 k-point 66 :   0.3333 0.2500 0.2500  plane waves:    1678
 k-point 67 :   0.4167 0.2500 0.2500  plane waves:    1676
 k-point 68 :   0.5000 0.2500 0.2500  plane waves:    1674
 k-point 69 :   0.3333 0.3333 0.2500  plane waves:    1666
 k-point 70 :   0.4167 0.3333 0.2500  plane waves:    1673
 k-point 71 :   0.5000 0.3333 0.2500  plane waves:    1680
 k-point 72 :   0.4167 0.4167 0.2500  plane waves:    1677
 k-point 73 :   0.5000 0.4167 0.2500  plane waves:    1672
 k-point 74 :   0.5000 0.5000 0.2500  plane waves:    1672
 k-point 75 :   0.3333 0.3333 0.3333  plane waves:    1673
 k-point 76 :   0.4167 0.3333 0.3333  plane waves:    1682
 k-point 77 :   0.5000 0.3333 0.3333  plane waves:    1686
 k-point 78 :   0.4167 0.4167 0.3333  plane waves:    1670
 k-point 79 :   0.5000 0.4167 0.3333  plane waves:    1668
 k-point 80 :   0.5000 0.5000 0.3333  plane waves:    1656
 k-point 81 :   0.4167 0.4167 0.4167  plane waves:    1667
 k-point 82 :   0.5000 0.4167 0.4167  plane waves:    1666
 k-point 83 :   0.5000 0.5000 0.4167  plane waves:    1672
 k-point 84 :   0.5000 0.5000 0.5000  plane waves:    1640

 maximum and minimum number of plane-waves per node :      1743     1640

 maximum number of plane-waves:      1743
 maximum index in each direction: 
   IXMAX=    7   IYMAX=    7   IZMAX=    7
   IXMIN=   -7   IYMIN=   -7   IZMIN=   -7

 NGX is ok and might be reduce to  30
 NGY is ok and might be reduce to  30
 NGZ is ok and might be reduce to  30

 serial   3D FFT for wavefunctions
 parallel 3D FFT for charge:
    minimum data exchange during FFTs selected (reduces bandwidth)


 total amount of memory used by VASP on root node    44489. kBytes
========================================================================

   base      :      30000. kBytes
   nonl-proj :       9661. kBytes
   fftplans  :        918. kBytes
   grid      :       1447. kBytes
   one-center:         12. kBytes
   wavefun   :       2451. kBytes
 
     INWAV:  cpu time    0.99: real time    1.00
 Broyden mixing: mesh for mixing (old mesh)
   NGX = 15   NGY = 15   NGZ = 15
  (NGX  = 60   NGY  = 60   NGZ  = 60)
  gives a total of   3375 points

 charge density for first step will be calculated from the start-wavefunctions


--------------------------------------------------------------------------------------------------------


 Maximum index for augmentation-charges         4198 (set IRDMAX)


--------------------------------------------------------------------------------------------------------


 initial charge from wavefunction
 First call to EWALD:  gamma=   0.439
 Maximum number of real-space cells 3x 3x 3
 Maximum number of reciprocal cells 3x 3x 3

 FEWALD executed in parallel
    FEWALD:  cpu time    0.00: real time    0.00


----------------------------------------- Iteration    1(   1)  ---------------------------------------


    POTLOK:  cpu time    0.01: real time    0.01
    SETDIJ:  cpu time    0.11: real time    0.12
     EDDAV:  cpu time    4.35: real time    4.36
       DOS:  cpu time    0.00: real time    0.00
    CHARGE:  cpu time    0.09: real time    0.09
    MIXING:  cpu time    0.00: real time    0.00
    --------------------------------------------
      LOOP:  cpu time    4.56: real time    4.76

 eigenvalue-minimisations  :  8064
 total energy-change (2. order) :-0.8120315E+00  (-0.1307721E+02)
 number of electron      12.0000000 magnetization 
 augmentation part       -0.1818240 magnetization 

 Broyden mixing:
  rms(total) = 0.14710E+01    rms(broyden)= 0.97951E+00
  rms(prec ) = 0.10683E+01
  weight for this iteration     100.00
  WARNING: grid for Broyden might be to small

 Free energy of the ion-electron system (eV)
  ---------------------------------------------------
  alpha Z        PSCENC =        -0.81490738
  Ewald energy   TEWEN  =      -294.14116362
  -Hartree energ DENC   =        -0.01551287
  -exchange      EXHF   =         0.00000000
  -V(xc)+E(xc)   XCENC  =      -125.22733694
  PAW double counting   =       759.29313818     -630.77521217
  entropy T*S    EENTRO =        -0.00009437
  eigenvalues    EBANDS =        76.71541616
  atomic energy  EATOM  =       214.15364153
  ---------------------------------------------------
  free energy    TOTEN  =        -0.81203148 eV

  energy without entropy =       -0.81193712  energy(sigma->0) =       -0.81200003


--------------------------------------------------------------------------------------------------------




----------------------------------------- Iteration    1(   2)  ---------------------------------------


    POTLOK:  cpu time    0.01: real time    0.01
    SETDIJ:  cpu time    0.12: real time    0.12
     EDDAV:  cpu time   15.31: real time   15.34
       DOS:  cpu time    0.00: real time    0.00
    CHARGE:  cpu time    0.09: real time    0.09
    MIXING:  cpu time    0.00: real time    0.00
    --------------------------------------------
      LOOP:  cpu time   15.53: real time   15.73

 eigenvalue-minimisations  : 15120
 total energy-change (2. order) :-0.1432443E+02  (-0.3146517E+00)
 number of electron      12.0000000 magnetization 
 augmentation part       -0.1539173 magnetization 

 Broyden mixing:
  rms(total) = 0.48476E+00    rms(broyden)= 0.48476E+00
  rms(prec ) = 0.55424E+00
  weight for this iteration     100.00

 eigenvalues of (default mixing * dielectric matrix)
  average eigenvalue GAMMA=   1.8870
  1.8870

 Free energy of the ion-electron system (eV)
  ---------------------------------------------------
  alpha Z        PSCENC =        -0.81490738
  Ewald energy   TEWEN  =      -294.14116362
  -Hartree energ DENC   =        -0.07581584
  -exchange      EXHF   =         0.00000000
  -V(xc)+E(xc)   XCENC  =      -105.16376448
  PAW double counting   =       694.68922039     -566.41293764
  entropy T*S    EENTRO =         0.00002033
  eigenvalues    EBANDS =        42.62924872
  atomic energy  EATOM  =       214.15364153
  ---------------------------------------------------
  free energy    TOTEN  =       -15.13645801 eV

  energy without entropy =      -15.13647834  energy(sigma->0) =      -15.13646478


--------------------------------------------------------------------------------------------------------




----------------------------------------- Iteration    1(   3)  ---------------------------------------


    POTLOK:  cpu time    0.01: real time    0.01
    SETDIJ:  cpu time    0.12: real time    0.12
     EDDAV:  cpu time    4.91: real time    4.92
       DOS:  cpu time    0.00: real time    0.00
    CHARGE:  cpu time    0.09: real time    0.09
    MIXING:  cpu time    0.00: real time    0.00
    --------------------------------------------
      LOOP:  cpu time    5.13: real time    5.57

 eigenvalue-minimisations  :  8496
 total energy-change (2. order) : 0.1518524E+00  (-0.1665012E-02)
 number of electron      12.0000000 magnetization 
 augmentation part       -0.1533659 magnetization 

 Broyden mixing:
  rms(total) = 0.13338E+00    rms(broyden)= 0.13338E+00
  rms(prec ) = 0.15907E+00
  weight for this iteration     100.00

 eigenvalues of (default mixing * dielectric matrix)
  average eigenvalue GAMMA=   1.7753
  1.0140  2.5366

 Free energy of the ion-electron system (eV)
  ---------------------------------------------------
  alpha Z        PSCENC =        -0.81490738
  Ewald energy   TEWEN  =      -294.14116362
  -Hartree energ DENC   =        -0.27538196
  -exchange      EXHF   =         0.00000000
  -V(xc)+E(xc)   XCENC  =      -104.73505153
  PAW double counting   =       611.41827330     -483.49346386
  entropy T*S    EENTRO =         0.00002428
  eigenvalues    EBANDS =        42.90342361
  atomic energy  EATOM  =       214.15364153
  ---------------------------------------------------
  free energy    TOTEN  =       -14.98460564 eV

  energy without entropy =      -14.98462992  energy(sigma->0) =      -14.98461373


--------------------------------------------------------------------------------------------------------




----------------------------------------- Iteration    1(   4)  ---------------------------------------


    POTLOK:  cpu time    0.01: real time    0.01
    SETDIJ:  cpu time    0.12: real time    0.12
     EDDAV:  cpu time   14.24: real time   14.27
       DOS:  cpu time    0.00: real time    0.00
    CHARGE:  cpu time    0.09: real time    0.09
    MIXING:  cpu time    0.00: real time    0.00
    --------------------------------------------
      LOOP:  cpu time   14.46: real time   14.74

 eigenvalue-minimisations  : 14544
 total energy-change (2. order) : 0.1142973E-01  (-0.2279169E-03)
 number of electron      12.0000000 magnetization 
 augmentation part       -0.1541959 magnetization 

 Broyden mixing:
  rms(total) = 0.73604E-02    rms(broyden)= 0.73604E-02
  rms(prec ) = 0.10972E-01
  weight for this iteration     100.00

 eigenvalues of (default mixing * dielectric matrix)
  average eigenvalue GAMMA=   1.4814
  2.5792  1.0099  0.8550

 Free energy of the ion-electron system (eV)
  ---------------------------------------------------
  alpha Z        PSCENC =        -0.81490738
  Ewald energy   TEWEN  =      -294.14116362
  -Hartree energ DENC   =        -0.40245466
  -exchange      EXHF   =         0.00000000
  -V(xc)+E(xc)   XCENC  =      -104.53437226
  PAW double counting   =       579.96128658     -452.20744896
  entropy T*S    EENTRO =         0.00003438
  eigenvalues    EBANDS =        43.01220849
  atomic energy  EATOM  =       214.15364153
  ---------------------------------------------------
  free energy    TOTEN  =       -14.97317591 eV

  energy without entropy =      -14.97321029  energy(sigma->0) =      -14.97318737


--------------------------------------------------------------------------------------------------------




----------------------------------------- Iteration    1(   5)  ---------------------------------------


    POTLOK:  cpu time    0.01: real time    0.01
    SETDIJ:  cpu time    0.12: real time    0.12
     EDDAV:  cpu time    5.81: real time    5.83
       DOS:  cpu time    0.00: real time    0.00
    CHARGE:  cpu time    0.09: real time    0.09
    MIXING:  cpu time    0.00: real time    0.00
    --------------------------------------------
      LOOP:  cpu time    6.02: real time    6.44

 eigenvalue-minimisations  :  9072
 total energy-change (2. order) : 0.4027414E-04  (-0.3348321E-05)
 number of electron      12.0000000 magnetization 
 augmentation part       -0.1543306 magnetization 

 Broyden mixing:
  rms(total) = 0.47555E-02    rms(broyden)= 0.47555E-02
  rms(prec ) = 0.52147E-02
  weight for this iteration     100.00

 eigenvalues of (default mixing * dielectric matrix)
  average eigenvalue GAMMA=   1.8095
  0.9875  1.0597  2.6996  2.4914

 Free energy of the ion-electron system (eV)
  ---------------------------------------------------
  alpha Z        PSCENC =        -0.81490738
  Ewald energy   TEWEN  =      -294.14116362
  -Hartree energ DENC   =        -0.41259255
  -exchange      EXHF   =         0.00000000
  -V(xc)+E(xc)   XCENC  =      -104.51837925
  PAW double counting   =       570.68985709     -442.93316722
  entropy T*S    EENTRO =         0.00003531
  eigenvalues    EBANDS =        43.00354047
  atomic energy  EATOM  =       214.15364153
  ---------------------------------------------------
  free energy    TOTEN  =       -14.97313563 eV

  energy without entropy =      -14.97317094  energy(sigma->0) =      -14.97314740


--------------------------------------------------------------------------------------------------------




----------------------------------------- Iteration    1(   6)  ---------------------------------------


    POTLOK:  cpu time    0.01: real time    0.01
    SETDIJ:  cpu time    0.12: real time    0.12
     EDDAV:  cpu time   13.81: real time   13.84
       DOS:  cpu time    0.00: real time    0.00
    CHARGE:  cpu time    0.09: real time    0.09
    MIXING:  cpu time    0.00: real time    0.00
    --------------------------------------------
      LOOP:  cpu time   14.03: real time   14.36

 eigenvalue-minimisations  : 14112
 total energy-change (2. order) : 0.8268724E-04  (-0.3092519E-05)
 number of electron      12.0000000 magnetization 
 augmentation part       -0.1544217 magnetization 

 Broyden mixing:
  rms(total) = 0.39324E-03    rms(broyden)= 0.39324E-03
  rms(prec ) = 0.67432E-03
  weight for this iteration     100.00

 eigenvalues of (default mixing * dielectric matrix)
  average eigenvalue GAMMA=   1.9314
  1.0000  1.0324  2.6671  2.5691  2.3882

 Free energy of the ion-electron system (eV)
  ---------------------------------------------------
  alpha Z        PSCENC =        -0.81490738
  Ewald energy   TEWEN  =      -294.14116362
  -Hartree energ DENC   =        -0.41533012
  -exchange      EXHF   =         0.00000000
  -V(xc)+E(xc)   XCENC  =      -104.51335043
  PAW double counting   =       562.16750413     -434.39716353
  entropy T*S    EENTRO =         0.00003576
  eigenvalues    EBANDS =        42.98768073
  atomic energy  EATOM  =       214.15364153
  ---------------------------------------------------
  free energy    TOTEN  =       -14.97305295 eV

  energy without entropy =      -14.97308871  energy(sigma->0) =      -14.97306487


--------------------------------------------------------------------------------------------------------




----------------------------------------- Iteration    1(   7)  ---------------------------------------


    POTLOK:  cpu time    0.01: real time    0.01
    SETDIJ:  cpu time    0.12: real time    0.12
     EDDAV:  cpu time    6.72: real time    6.74
       DOS:  cpu time    0.00: real time    0.00
    --------------------------------------------
      LOOP:  cpu time    6.85: real time    7.14

 eigenvalue-minimisations  :  9264
 total energy-change (2. order) :-0.6829871E-06  (-0.2174021E-07)
 number of electron      12.0000000 magnetization 
 augmentation part       -0.1544217 magnetization 

 Free energy of the ion-electron system (eV)
  ---------------------------------------------------
  alpha Z        PSCENC =        -0.81490738
  Ewald energy   TEWEN  =      -294.14116362
  -Hartree energ DENC   =        -0.41520496
  -exchange      EXHF   =         0.00000000
  -V(xc)+E(xc)   XCENC  =      -104.51383267
  PAW double counting   =       562.05632016     -434.28644254
  entropy T*S    EENTRO =         0.00003573
  eigenvalues    EBANDS =        42.98850013
  atomic energy  EATOM  =       214.15364153
  ---------------------------------------------------
  free energy    TOTEN  =       -14.97305363 eV

  energy without entropy =      -14.97308936  energy(sigma->0) =      -14.97306554


--------------------------------------------------------------------------------------------------------




 average (electrostatic) potential at core
  the test charge radii are     1.0406
  (the norm of the test charge is              1.0000)
       1 -72.6236       2 -72.6236       3 -72.6236       4 -72.6236
 
 
 
 E-fermi :   7.9766     XC(G=0): -10.2000     alpha+bet :-14.8882


 k-point     1 :       0.0000    0.0000    0.0000
  band No.  band energies     occupation 
      1      -3.1319      2.00000
      2       5.0821      2.00000
      3       5.0821      2.00000
      4       5.0821      2.00000
      5       6.4073      2.00000
      6       6.4073      2.00000
      7       6.4073      2.00000
      8      13.2660      0.00000
      9      13.2660      0.00000
     10      13.2660      0.00000
     11      13.6060      0.00000
     12      13.6060      0.00000
     13      13.6060      0.00000
     14      13.6060      0.00000
     15      13.6060      0.00000
     16      13.6060      0.00000
     17      17.0838      0.00000
     18      17.0838      0.00000
     19      17.0838      0.00000
     20      20.6316      0.00000
     21      20.6316      0.00000
     22      20.6316      0.00000
     23      22.1289      0.00000
     24      22.1289      0.00000
     25      22.1289      0.00000
     26      24.4794      0.00000
     27      27.4339      0.00000
     28      27.4339      0.00000
     29      30.3059      0.00000
     30      32.6581      0.00000
     31      32.6581      0.00000
     32      32.6581      0.00000
     33      33.4254      0.00000
     34      33.4254      0.00000
     35      33.4254      0.00000
     36      34.9367      0.00000
     37      34.9367      0.00000
     38      34.9367      0.00000
     39      34.9367      0.00000
     40      34.9367      0.00000
     41      34.9367      0.00000
     42      40.6076      0.00000
     43      40.6076      0.00000
     44      40.6076      0.00000
     45      41.2859      0.00000
     46      41.4235      0.00000
     47      41.4235      0.00000
     48      41.4235      0.00000

 k-point     2 :       0.0833    0.0000    0.0000
  band No.  band energies     occupation 
      1      -3.0690      2.00000
      2       4.2139      2.00000
      3       5.1398      2.00000
      4       5.1398      2.00000
      5       6.4682      2.00000
      6       6.4682      2.00000
      7       7.3845      2.00000
      8      12.0872      0.00000
      9      12.0872      0.00000
     10      13.1696      0.00000
     11      13.1696      0.00000
     12      13.3281      0.00000
     13      13.6594      0.00000
     14      13.6594      0.00000
     15      14.9013      0.00000
     16      14.9013      0.00000
     17      17.1415      0.00000
     18      17.6142      0.00000
     19      17.6142      0.00000
     20      19.9485      0.00000
     21      19.9485      0.00000
     22      20.1646      0.00000
     23      21.9741      0.00000
     24      22.9048      0.00000
     25      22.9048      0.00000
     26      25.0722      0.00000
     27      26.6156      0.00000
     28      27.4923      0.00000
     29      30.2522      0.00000
     30      32.7295      0.00000
     31      32.7295      0.00000
     32      33.0843      0.00000
     33      33.0843      0.00000
     34      33.1819      0.00000
     35      33.6576      0.00000
     36      34.1268      0.00000
     37      34.1268      0.00000
     38      34.7209      0.00000
     39      34.7209      0.00000
     40      34.9507      0.00000
     41      34.9507      0.00000
     42      40.8913      0.00000
     43      40.8913      0.00000
     44      40.9620      0.00000
     45      40.9621      0.00000
     46      40.9754      0.00000
     47      40.9938      0.00000
     48      41.4570      0.00000

 k-point     3 :       0.1667    0.0000    0.0000
  band No.  band energies     occupation 
      1      -2.8802      2.00000
      2       3.0094      2.00000
      3       5.3127      2.00000
      4       5.3127      2.00000
      5       6.6499      2.00000
      6       6.6499      2.00000
      7       8.9160      0.00000
      8      10.8709      0.00000
      9      10.8709      0.00000
     10      12.2702      0.00000
     11      12.2702      0.00000
     12      13.5144      0.00000
     13      13.8198      0.00000
     14      13.8198      0.00000
     15      16.4665      0.00000
     16      16.4665      0.00000
     17      17.3135      0.00000
     18      18.7945      0.00000
     19      18.7945      0.00000
     20      18.9158      0.00000
     21      18.9158      0.00000
     22      19.2045      0.00000
     23      21.5563      0.00000
     24      24.2111      0.00000
     25      24.2111      0.00000
     26      24.7793      0.00000
     27      26.4095      0.00000
     28      27.6669      0.00000
     29      30.6231      0.00000
     30      32.1267      0.00000
     31      32.1267      0.00000
     32      32.3407      0.00000
     33      32.3407      0.00000
     34      32.5680      0.00000
     35      32.9476      0.00000
     36      32.9476      0.00000
     37      34.1453      0.00000
     38      34.1453      0.00000
     39      34.9891      0.00000
     40      34.9891      0.00000
     41      35.4157      0.00000
     42      39.7033      0.00000
     43      40.3091      0.00000
     44      40.3091      0.00000
     45      41.3884      0.00000
     46      41.3887      0.00000
     47      41.5118      0.00000
     48      41.5241      0.00000

 k-point     4 :       0.2500    0.0000    0.0000
  band No.  band energies     occupation 
      1      -2.5662      2.00000
      2       1.8733      2.00000
      3       5.6010      2.00000
      4       5.6010      2.00000
      5       6.9492      2.00000
      6       6.9492      2.00000
      7       9.7684      0.00000
      8       9.7684      0.00000
      9      10.5963      0.00000
     10      11.2929      0.00000
     11      11.2929      0.00000
     12      13.8245      0.00000
     13      14.0871      0.00000
     14      14.0871      0.00000
     15      17.5961      0.00000
     16      17.9262      0.00000
     17      17.9262      0.00000
     18      18.1485      0.00000
     19      18.1485      0.00000
     20      18.1646      0.00000
     21      20.2354      0.00000
     22      20.2354      0.00000
     23      20.9743      0.00000
     24      22.6519      0.00000
     25      25.6399      0.00000
     26      25.6399      0.00000
     27      27.9565      0.00000
     28      28.0779      0.00000
     29      30.2408      0.00000
     30      30.2408      0.00000
     31      30.7333      0.00000
     32      30.7333      0.00000
     33      31.3535      0.00000
     34      31.7857      0.00000
     35      33.3256      0.00000
     36      33.3256      0.00000
     37      33.3350      0.00000
     38      33.3350      0.00000
     39      35.0427      0.00000
     40      35.0427      0.00000
     41      37.0927      0.00000
     42      38.3536      0.00000
     43      40.0204      0.00000
     44      40.0204      0.00000
     45      40.3784      0.00000
     46      40.3784      0.00000
     47      41.4222      0.00000
     48      41.7262      0.00000

 k-point     5 :       0.3333    0.0000    0.0000
  band No.  band energies     occupation 
      1      -2.1277      2.00000
      2       0.8406      2.00000
      3       6.0050      2.00000
      4       6.0050      2.00000
      5       7.3575      2.00000
      6       7.3575      2.00000
      7       8.7825      0.00000
      8       8.7825      0.00000
      9      10.3663      0.00000
     10      10.3663      0.00000
     11      12.3893      0.00000
     12      14.2575      0.00000
     13      14.4615      0.00000
     14      14.4615      0.00000
     15      17.0261      0.00000
     16      17.0261      0.00000
     17      17.1749      0.00000
     18      17.9836      0.00000
     19      19.9420      0.00000
     20      19.9420      0.00000
     21      20.3115      0.00000
     22      20.4888      0.00000
     23      21.7974      0.00000
     24      21.7974      0.00000
     25      27.1165      0.00000
     26      27.1165      0.00000
     27      28.0710      0.00000
     28      28.0710      0.00000
     29      28.3592      0.00000
     30      29.1146      0.00000
     31      29.1146      0.00000
     32      29.9471      0.00000
     33      30.9699      0.00000
     34      32.2863      0.00000
     35      32.3627      0.00000
     36      32.3627      0.00000
     37      33.8883      0.00000
     38      33.8883      0.00000
     39      35.0980      0.00000
     40      35.0980      0.00000
     41      37.0185      0.00000
     42      38.5154      0.00000
     43      38.6909      0.00000
     44      38.6909      0.00000
     45      38.8734      0.00000
     46      39.9415      0.00000
     47      39.9415      0.00000
     48      41.9474      0.00000

 k-point     6 :       0.4167    0.0000    0.0000
  band No.  band energies     occupation 
      1      -1.5660      2.00000
      2      -0.0795      2.00000
      3       6.5248      2.00000
      4       6.5248      2.00000
      5       7.8429      2.00000
      6       7.8429      2.00000
      7       7.9133      2.00000
      8       7.9133      2.00000
      9       9.5608      0.00000
     10       9.5608      0.00000
     11      14.2836      0.00000
     12      14.8124      0.00000
     13      14.9431      0.00000
     14      14.9431      0.00000
     15      16.2265      0.00000
     16      16.2265      0.00000
     17      16.2768      0.00000
     18      18.3408      0.00000
     19      18.4665      0.00000
     20      19.6600      0.00000
     21      21.8415      0.00000
     22      21.8415      0.00000
     23      23.3729      0.00000
     24      23.3729      0.00000
     25      25.9232      0.00000
     26      25.9232      0.00000
     27      27.4703      0.00000
     28      27.4703      0.00000
     29      28.5833      0.00000
     30      28.5833      0.00000
     31      28.8708      0.00000
     32      30.1910      0.00000
     33      31.2441      0.00000
     34      31.2441      0.00000
     35      31.9748      0.00000
     36      33.3473      0.00000
     37      34.6742      0.00000
     38      34.6742      0.00000
     39      35.1394      0.00000
     40      35.1394      0.00000
     41      35.7289      0.00000
     42      36.4454      0.00000
     43      37.0810      0.00000
     44      37.0810      0.00000
     45      39.7407      0.00000
     46      39.9543      0.00000
     47      39.9543      0.00000
     48      41.8739      0.00000

 k-point     7 :       0.5000    0.0000    0.0000
  band No.  band energies     occupation 
      1      -0.8826      2.00000
      2      -0.8826      2.00000
      3       7.1608      2.00000
      4       7.1608      2.00000
      5       7.1608      2.00000
      6       7.1608      2.00000
      7       8.1769      0.00000
      8       8.1769      0.00000
      9       9.1188      0.00000
     10       9.1188      0.00000
     11      15.4867      0.00000
     12      15.4867      0.00000
     13      15.5316      0.00000
     14      15.5316      0.00000
     15      15.5316      0.00000
     16      15.5316      0.00000
     17      16.2709      0.00000
     18      16.2709      0.00000
     19      19.0316      0.00000
     20      19.0316      0.00000
     21      23.8395      0.00000
     22      23.8395      0.00000
     23      23.8395      0.00000
     24      23.8395      0.00000
     25      24.3906      0.00000
     26      24.3906      0.00000
     27      26.4245      0.00000
     28      26.4245      0.00000
     29      29.4849      0.00000
     30      29.4849      0.00000
     31      29.9771      0.00000
     32      29.9771      0.00000
     33      29.9771      0.00000
     34      29.9771      0.00000
     35      34.1439      0.00000
     36      34.1439      0.00000
     37      34.5009      0.00000
     38      34.5009      0.00000
     39      35.1549      0.00000
     40      35.1549      0.00000
     41      35.7294      0.00000
     42      35.7294      0.00000
     43      35.7294      0.00000
     44      35.7294      0.00000
     45      39.9701      0.00000
     46      39.9701      0.00000
     47      40.8521      0.00000
     48      40.8521      0.00000

 k-point     8 :       0.0833    0.0833    0.0000
  band No.  band energies     occupation 
      1      -3.0060      2.00000
      2       4.2731      2.00000
      3       4.2731      2.00000
      4       5.1974      2.00000
      5       6.5287      2.00000
      6       7.4435      2.00000
      7       7.4435      2.00000
      8      11.2376      0.00000
      9      12.1455      0.00000
     10      12.1455      0.00000
     11      13.2245      0.00000
     12      13.2245      0.00000
     13      13.7137      0.00000
     14      14.8248      0.00000
     15      14.9584      0.00000
     16      14.9584      0.00000
     17      17.6705      0.00000
     18      17.6705      0.00000
     19      18.2063      0.00000
     20      18.9283      0.00000
     21      19.4146      0.00000
     22      20.7541      0.00000
     23      22.2092      0.00000
     24      22.8881      0.00000
     25      23.1376      0.00000
     26      25.7358      0.00000
     27      26.3915      0.00000
     28      27.0394      0.00000
     29      30.0614      0.00000
     30      32.6657      0.00000
     31      32.6657      0.00000
     32      32.7998      0.00000
     33      32.8032      0.00000
     34      33.5840      0.00000
     35      33.9477      0.00000
     36      34.0300      0.00000
     37      34.2188      0.00000
     38      34.2188      0.00000
     39      34.2788      0.00000
     40      34.7300      0.00000
     41      34.7300      0.00000
     42      40.0176      0.00000
     43      40.3295      0.00000
     44      40.3295      0.00000
     45      41.2763      0.00000
     46      41.2764      0.00000
     47      41.4186      0.00000
     48      41.5705      0.00000

 k-point     9 :       0.1667    0.0833    0.0000
  band No.  band energies     occupation 
      1      -2.8174      2.00000
      2       3.0695      2.00000
      3       4.4506      2.00000
      4       5.3703      2.00000
      5       6.7089      2.00000
      6       7.6196      2.00000
      7       8.9731      0.00000
      8      10.0832      0.00000
      9      10.9290      0.00000
     10      12.3206      0.00000
     11      12.3277      0.00000
     12      13.1113      0.00000
     13      13.3892      0.00000
     14      15.1298      0.00000
     15      15.9676      0.00000
     16      16.5236      0.00000
     17      17.8004      0.00000
     18      17.8384      0.00000
     19      18.4655      0.00000
     20      18.8485      0.00000
     21      19.4497      0.00000
     22      20.3121      0.00000
     23      21.9617      0.00000
     24      23.7459      0.00000
     25      24.1746      0.00000
     26      24.8038      0.00000
     27      27.0514      0.00000
     28      27.0904      0.00000
     29      30.2634      0.00000
     30      31.2558      0.00000
     31      31.8576      0.00000
     32      31.9591      0.00000
     33      32.3641      0.00000
     34      33.0296      0.00000
     35      33.0689      0.00000
     36      34.0164      0.00000
     37      34.0764      0.00000
     38      34.1399      0.00000
     39      34.2501      0.00000
     40      34.7532      0.00000
     41      35.6331      0.00000
     42      39.2040      0.00000
     43      39.2150      0.00000
     44      39.6563      0.00000
     45      41.3440      0.00000
     46      41.4274      0.00000
     47      41.6149      0.00000
     48      41.6206      0.00000

 k-point    10 :       0.2500    0.0833    0.0000
  band No.  band energies     occupation 
      1      -2.5035      2.00000
      2       1.9340      2.00000
      3       4.7460      2.00000
      4       5.6587      2.00000
      5       7.0026      2.00000
      6       7.9091      2.00000
      7       9.0045      0.00000
      8       9.8265      0.00000
      9      10.6503      0.00000
     10      11.3543      0.00000
     11      12.1556      0.00000
     12      12.6120      0.00000
     13      13.6642      0.00000
     14      15.4153      0.00000
     15      16.7437      0.00000
     16      17.5047      0.00000
     17      17.5695      0.00000
     18      18.1147      0.00000
     19      18.2053      0.00000
     20      19.4229      0.00000
     21      20.2868      0.00000
     22      20.9273      0.00000
     23      21.4073      0.00000
     24      22.7162      0.00000
     25      25.1324      0.00000
     26      25.5149      0.00000
     27      27.3793      0.00000
     28      28.6983      0.00000
     29      29.3676      0.00000
     30      30.2801      0.00000
     31      30.6634      0.00000
     32      30.8208      0.00000
     33      30.9734      0.00000
     34      31.5736      0.00000
     35      33.3018      0.00000
     36      33.4268      0.00000
     37      33.5360      0.00000
     38      34.3534      0.00000
     39      34.5467      0.00000
     40      34.7790      0.00000
     41      37.3379      0.00000
     42      37.7062      0.00000
     43      38.8039      0.00000
     44      39.2992      0.00000
     45      39.7894      0.00000
     46      41.3810      0.00000
     47      41.6854      0.00000
     48      41.6965      0.00000

 k-point    11 :       0.3333    0.0833    0.0000
  band No.  band energies     occupation 
      1      -2.0652      2.00000
      2       0.9018      2.00000
      3       5.1585      2.00000
      4       6.0627      2.00000
      5       7.3659      2.00000
      6       8.0737      0.00000
      7       8.2989      0.00000
      8       8.8404      0.00000
      9      10.4384      0.00000
     10      11.2289      0.00000
     11      12.4356      0.00000
     12      13.0192      0.00000
     13      14.0523      0.00000
     14      15.7821      0.00000
     15      15.8149      0.00000
     16      16.6123      0.00000
     17      18.4939      0.00000
     18      18.5176      0.00000
     19      19.3189      0.00000
     20      19.9982      0.00000
     21      20.4836      0.00000
     22      20.8430      0.00000
     23      21.8444      0.00000
     24      22.5160      0.00000
     25      26.6629      0.00000
     26      26.8245      0.00000
     27      27.3252      0.00000
     28      27.9668      0.00000
     29      28.1179      0.00000
     30      29.1039      0.00000
     31      29.8850      0.00000
     32      30.1075      0.00000
     33      30.4469      0.00000
     34      31.5575      0.00000
     35      32.2819      0.00000
     36      32.6975      0.00000
     37      34.0330      0.00000
     38      34.4795      0.00000
     39      34.7903      0.00000
     40      35.2785      0.00000
     41      36.1569      0.00000
     42      37.8310      0.00000
     43      38.6992      0.00000
     44      38.7690      0.00000
     45      39.1448      0.00000
     46      39.9729      0.00000
     47      40.0212      0.00000
     48      41.6631      0.00000

 k-point    12 :       0.4167    0.0833    0.0000
  band No.  band energies     occupation 
      1      -1.5037      2.00000
      2      -0.0178      2.00000
      3       5.6867      2.00000
      4       6.5826      2.00000
      5       7.0567      2.00000
      6       7.9712      1.77859
      7       8.0291      0.00000
      8       8.7072      0.00000
      9       9.7019      0.00000
     10      10.3968      0.00000
     11      13.5413      0.00000
     12      14.2531      0.00000
     13      14.6167      0.00000
     14      14.9251      0.00000
     15      15.8097      0.00000
     16      16.3280      0.00000
     17      17.6858      0.00000
     18      18.4034      0.00000
     19      18.9674      0.00000
     20      20.1435      0.00000
     21      21.1723      0.00000
     22      21.8968      0.00000
     23      23.3870      0.00000
     24      24.1080      0.00000
     25      25.3197      0.00000
     26      25.9744      0.00000
     27      27.5080      0.00000
     28      27.7981      0.00000
     29      28.1566      0.00000
     30      28.2206      0.00000
     31      29.0282      0.00000
     32      29.2955      0.00000
     33      31.0880      0.00000
     34      31.6272      0.00000
     35      32.2736      0.00000
     36      32.4296      0.00000
     37      34.6048      0.00000
     38      34.7099      0.00000
     39      34.7696      0.00000
     40      34.9198      0.00000
     41      35.9393      0.00000
     42      36.2061      0.00000
     43      37.9149      0.00000
     44      38.6002      0.00000
     45      38.7719      0.00000
     46      39.0433      0.00000
     47      39.9792      0.00000
     48      41.6740      0.00000

 k-point    13 :       0.5000    0.0833    0.0000
  band No.  band energies     occupation 
      1      -0.8206      2.00000
      2      -0.8206      2.00000
      3       6.3266      2.00000
      4       6.3266      2.00000
      5       7.2187      2.00000
      6       7.2187      2.00000
      7       8.5661      0.00000
      8       8.5661      0.00000
      9       9.7308      0.00000
     10       9.7308      0.00000
     11      14.1772      0.00000
     12      14.1772      0.00000
     13      15.1000      0.00000
[...]
   50.269005    0.000165    0.000165    0.000165    0.000000    0.000000    0.000000
   50.543699    0.000162    0.000162    0.000162    0.000000    0.000000    0.000000
   50.818393    0.000159    0.000159    0.000159    0.000000    0.000000    0.000000
   51.093087    0.000157    0.000157    0.000157    0.000000    0.000000    0.000000
   51.367781    0.000154    0.000154    0.000154    0.000000    0.000000    0.000000
   51.642475    0.000151    0.000151    0.000151    0.000000    0.000000    0.000000
   51.917169    0.000149    0.000149    0.000149    0.000000    0.000000    0.000000
   52.191863    0.000146    0.000146    0.000146    0.000000    0.000000    0.000000
   52.466557    0.000144    0.000144    0.000144    0.000000    0.000000    0.000000
   52.741251    0.000141    0.000141    0.000141    0.000000    0.000000    0.000000
   53.015945    0.000139    0.000139    0.000139    0.000000    0.000000    0.000000
   53.290639    0.000137    0.000137    0.000137    0.000000    0.000000    0.000000
   53.565333    0.000135    0.000135    0.000135    0.000000    0.000000    0.000000
   53.840027    0.000133    0.000133    0.000133    0.000000    0.000000    0.000000
   54.114721    0.000130    0.000130    0.000130    0.000000    0.000000    0.000000
   54.389415    0.000128    0.000128    0.000128    0.000000    0.000000    0.000000
   54.664109    0.000126    0.000126    0.000126    0.000000    0.000000    0.000000

  frequency dependent      REAL DIELECTRIC FUNCTION (independent particle, no local field effects)
     E(ev)      X         Y         Z        XY        YZ        ZX
  --------------------------------------------------------------------------------------
    0.000000   99.259968   99.259968   99.259968    0.000000    0.000000    0.000000
    0.274694  119.285355  119.285355  119.285355    0.000000    0.000000    0.000000
    0.549388   23.669133   23.669133   23.669133    0.000000    0.000000    0.000000
    0.824082  -15.266541  -15.266541  -15.266541    0.000000    0.000000    0.000000
    1.098776   17.962503   17.962503   17.962503    0.000000    0.000000    0.000000
    1.373470   45.849254   45.849254   45.849254    0.000000    0.000000    0.000000
    1.648164  -49.504901  -49.504901  -49.504901    0.000000    0.000000    0.000000
    1.922858  -30.365776  -30.365776  -30.365776    0.000000    0.000000    0.000000
    2.197552  -18.360087  -18.360087  -18.360087    0.000000    0.000000    0.000000
    2.472246  -10.661867  -10.661867  -10.661867    0.000000    0.000000    0.000000
    2.746940   -5.223099   -5.223099   -5.223099    0.000000    0.000000    0.000000
    3.021634    0.300666    0.300666    0.300666    0.000000    0.000000    0.000000
    3.296328  -11.779817  -11.779817  -11.779817    0.000000    0.000000    0.000000
    3.571022  -11.078807  -11.078807  -11.078807    0.000000    0.000000    0.000000
    3.845716   -7.677789   -7.677789   -7.677789    0.000000    0.000000    0.000000
    4.120410   -5.679057   -5.679057   -5.679057    0.000000    0.000000    0.000000
    4.395104   -4.404054   -4.404054   -4.404054    0.000000    0.000000    0.000000
    4.669798   -3.586266   -3.586266   -3.586266    0.000000    0.000000    0.000000
    4.944492   -2.817041   -2.817041   -2.817041    0.000000    0.000000    0.000000
    5.219186   -2.132795   -2.132795   -2.132795    0.000000    0.000000    0.000000
    5.493880   -1.325832   -1.325832   -1.325832    0.000000    0.000000    0.000000
    5.768574   -0.700037   -0.700037   -0.700037    0.000000    0.000000    0.000000
    6.043268   -2.748985   -2.748985   -2.748985    0.000000    0.000000    0.000000
    6.317962   -2.083510   -2.083510   -2.083510    0.000000    0.000000    0.000000
    6.592656   -1.586465   -1.586465   -1.586465    0.000000    0.000000    0.000000
    6.867350   -1.239755   -1.239755   -1.239755    0.000000    0.000000    0.000000
    7.142044   -0.974722   -0.974722   -0.974722    0.000000    0.000000    0.000000
    7.416738   -0.810988   -0.810988   -0.810988    0.000000    0.000000    0.000000
    7.691432   -0.599404   -0.599404   -0.599404    0.000000    0.000000    0.000000
    7.966126   -0.462662   -0.462662   -0.462662    0.000000    0.000000    0.000000
    8.240821   -0.219527   -0.219527   -0.219527    0.000000    0.000000    0.000000
    8.515515   -0.236873   -0.236873   -0.236873    0.000000    0.000000    0.000000
    8.790209   -0.515332   -0.515332   -0.515332    0.000000    0.000000    0.000000
    9.064903   -0.355271   -0.355271   -0.355271    0.000000    0.000000    0.000000
    9.339597   -0.189114   -0.189114   -0.189114    0.000000    0.000000    0.000000
    9.614291   -0.125335   -0.125335   -0.125335    0.000000    0.000000    0.000000
    9.888985   -0.025979   -0.025979   -0.025979    0.000000    0.000000    0.000000
   10.163679    0.047338    0.047338    0.047338    0.000000    0.000000    0.000000
   10.438373    0.116948    0.116948    0.116948    0.000000    0.000000    0.000000
   10.713067    0.170778    0.170778    0.170778    0.000000    0.000000    0.000000
   10.987761    0.253146    0.253146    0.253146    0.000000    0.000000    0.000000
   11.262455    0.299095    0.299095    0.299095    0.000000    0.000000    0.000000
   11.537149    0.228195    0.228195    0.228195    0.000000    0.000000    0.000000
   11.811843    0.222005    0.222005    0.222005    0.000000    0.000000    0.000000
   12.086537    0.296388    0.296388    0.296388    0.000000    0.000000    0.000000
   12.361231    0.335647    0.335647    0.335647    0.000000    0.000000    0.000000
   12.635925    0.374727    0.374727    0.374727    0.000000    0.000000    0.000000
   12.910619    0.416011    0.416011    0.416011    0.000000    0.000000    0.000000
   13.185313    0.441590    0.441590    0.441590    0.000000    0.000000    0.000000
   13.460007    0.472653    0.472653    0.472653    0.000000    0.000000    0.000000
   13.734701    0.515117    0.515117    0.515117    0.000000    0.000000    0.000000
   14.009395    0.542213    0.542213    0.542213    0.000000    0.000000    0.000000
   14.284089    0.515658    0.515658    0.515658    0.000000    0.000000    0.000000
   14.558783    0.501462    0.501462    0.501462    0.000000    0.000000    0.000000
   14.833477    0.537144    0.537144    0.537144    0.000000    0.000000    0.000000
   15.108171    0.567184    0.567184    0.567184    0.000000    0.000000    0.000000
   15.382865    0.584250    0.584250    0.584250    0.000000    0.000000    0.000000
   15.657559    0.603497    0.603497    0.603497    0.000000    0.000000    0.000000
   15.932253    0.620828    0.620828    0.620828    0.000000    0.000000    0.000000
   16.206947    0.638702    0.638702    0.638702    0.000000    0.000000    0.000000
   16.481641    0.660365    0.660365    0.660365    0.000000    0.000000    0.000000
   16.756335    0.669979    0.669979    0.669979    0.000000    0.000000    0.000000
   17.031029    0.660062    0.660062    0.660062    0.000000    0.000000    0.000000
   17.305723    0.653940    0.653940    0.653940    0.000000    0.000000    0.000000
   17.580417    0.672871    0.672871    0.672871    0.000000    0.000000    0.000000
   17.855111    0.690237    0.690237    0.690237    0.000000    0.000000    0.000000
   18.129805    0.701667    0.701667    0.701667    0.000000    0.000000    0.000000
   18.404499    0.711761    0.711761    0.711761    0.000000    0.000000    0.000000
   18.679193    0.726493    0.726493    0.726493    0.000000    0.000000    0.000000
   18.953887    0.734543    0.734543    0.734543    0.000000    0.000000    0.000000
   19.228581    0.746352    0.746352    0.746352    0.000000    0.000000    0.000000
   19.503275    0.747286    0.747286    0.747286    0.000000    0.000000    0.000000
   19.777969    0.745794    0.745794    0.745794    0.000000    0.000000    0.000000
   20.052663    0.749925    0.749925    0.749925    0.000000    0.000000    0.000000
   20.327357    0.757850    0.757850    0.757850    0.000000    0.000000    0.000000
   20.602051    0.767236    0.767236    0.767236    0.000000    0.000000    0.000000
   20.876745    0.775289    0.775289    0.775289    0.000000    0.000000    0.000000
   21.151439    0.784454    0.784454    0.784454    0.000000    0.000000    0.000000
   21.426133    0.790494    0.790494    0.790494    0.000000    0.000000    0.000000
   21.700827    0.796766    0.796766    0.796766    0.000000    0.000000    0.000000
   21.975521    0.801418    0.801418    0.801418    0.000000    0.000000    0.000000
   22.250215    0.804076    0.804076    0.804076    0.000000    0.000000    0.000000
   22.524909    0.803534    0.803534    0.803534    0.000000    0.000000    0.000000
   22.799603    0.809598    0.809598    0.809598    0.000000    0.000000    0.000000
   23.074297    0.811436    0.811436    0.811436    0.000000    0.000000    0.000000
   23.348991    0.819636    0.819636    0.819636    0.000000    0.000000    0.000000
   23.623685    0.824254    0.824254    0.824254    0.000000    0.000000    0.000000
   23.898379    0.825974    0.825974    0.825974    0.000000    0.000000    0.000000
   24.173074    0.832091    0.832091    0.832091    0.000000    0.000000    0.000000
   24.447768    0.837787    0.837787    0.837787    0.000000    0.000000    0.000000
   24.722462    0.838035    0.838035    0.838035    0.000000    0.000000    0.000000
   24.997156    0.840340    0.840340    0.840340    0.000000    0.000000    0.000000
   25.271850    0.845200    0.845200    0.845200    0.000000    0.000000    0.000000
   25.546544    0.847066    0.847066    0.847066    0.000000    0.000000    0.000000
   25.821238    0.851729    0.851729    0.851729    0.000000    0.000000    0.000000
   26.095932    0.855022    0.855022    0.855022    0.000000    0.000000    0.000000
   26.370626    0.858057    0.858057    0.858057    0.000000    0.000000    0.000000
   26.645320    0.861709    0.861709    0.861709    0.000000    0.000000    0.000000
   26.920014    0.863366    0.863366    0.863366    0.000000    0.000000    0.000000
   27.194708    0.865956    0.865956    0.865956    0.000000    0.000000    0.000000
   27.469402    0.870141    0.870141    0.870141    0.000000    0.000000    0.000000
   27.744096    0.870831    0.870831    0.870831    0.000000    0.000000    0.000000
   28.018790    0.873853    0.873853    0.873853    0.000000    0.000000    0.000000
   28.293484    0.876656    0.876656    0.876656    0.000000    0.000000    0.000000
   28.568178    0.879147    0.879147    0.879147    0.000000    0.000000    0.000000
   28.842872    0.881682    0.881682    0.881682    0.000000    0.000000    0.000000
   29.117566    0.883807    0.883807    0.883807    0.000000    0.000000    0.000000
   29.392260    0.885087    0.885087    0.885087    0.000000    0.000000    0.000000
   29.666954    0.887053    0.887053    0.887053    0.000000    0.000000    0.000000
   29.941648    0.887555    0.887555    0.887555    0.000000    0.000000    0.000000
   30.216342    0.888756    0.888756    0.888756    0.000000    0.000000    0.000000
   30.491036    0.891490    0.891490    0.891490    0.000000    0.000000    0.000000
   30.765730    0.895078    0.895078    0.895078    0.000000    0.000000    0.000000
   31.040424    0.896958    0.896958    0.896958    0.000000    0.000000    0.000000
   31.315118    0.896542    0.896542    0.896542    0.000000    0.000000    0.000000
   31.589812    0.899739    0.899739    0.899739    0.000000    0.000000    0.000000
   31.864506    0.898633    0.898633    0.898633    0.000000    0.000000    0.000000
   32.139200    0.901544    0.901544    0.901544    0.000000    0.000000    0.000000
   32.413894    0.905270    0.905270    0.905270    0.000000    0.000000    0.000000
   32.688588    0.906124    0.906124    0.906124    0.000000    0.000000    0.000000
   32.963282    0.906429    0.906429    0.906429    0.000000    0.000000    0.000000
   33.237976    0.906504    0.906504    0.906504    0.000000    0.000000    0.000000
   33.512670    0.908567    0.908567    0.908567    0.000000    0.000000    0.000000
   33.787364    0.909866    0.909866    0.909866    0.000000    0.000000    0.000000
   34.062058    0.912475    0.912475    0.912475    0.000000    0.000000    0.000000
   34.336752    0.912590    0.912590    0.912590    0.000000    0.000000    0.000000
   34.611446    0.911360    0.911360    0.911360    0.000000    0.000000    0.000000
   34.886140    0.912116    0.912116    0.912116    0.000000    0.000000    0.000000
   35.160834    0.915357    0.915357    0.915357    0.000000    0.000000    0.000000
   35.435528    0.916888    0.916888    0.916888    0.000000    0.000000    0.000000
   35.710222    0.918720    0.918720    0.918720    0.000000    0.000000    0.000000
   35.984916    0.917832    0.917832    0.917832    0.000000    0.000000    0.000000
   36.259610    0.919922    0.919922    0.919922    0.000000    0.000000    0.000000
   36.534304    0.921855    0.921855    0.921855    0.000000    0.000000    0.000000
   36.808998    0.923622    0.923622    0.923622    0.000000    0.000000    0.000000
   37.083692    0.924627    0.924627    0.924627    0.000000    0.000000    0.000000
   37.358386    0.924924    0.924924    0.924924    0.000000    0.000000    0.000000
   37.633080    0.925311    0.925311    0.925311    0.000000    0.000000    0.000000
   37.907774    0.926076    0.926076    0.926076    0.000000    0.000000    0.000000
   38.182468    0.927887    0.927887    0.927887    0.000000    0.000000    0.000000
   38.457162    0.929093    0.929093    0.929093    0.000000    0.000000    0.000000
   38.731856    0.929261    0.929261    0.929261    0.000000    0.000000    0.000000
   39.006550    0.930383    0.930383    0.930383    0.000000    0.000000    0.000000
   39.281244    0.930554    0.930554    0.930554    0.000000    0.000000    0.000000
   39.555938    0.932225    0.932225    0.932225    0.000000    0.000000    0.000000
   39.830632    0.933486    0.933486    0.933486    0.000000    0.000000    0.000000
   40.105326    0.934437    0.934437    0.934437    0.000000    0.000000    0.000000
   40.380021    0.935745    0.935745    0.935745    0.000000    0.000000    0.000000
   40.654715    0.936602    0.936602    0.936602    0.000000    0.000000    0.000000
   40.929409    0.937785    0.937785    0.937785    0.000000    0.000000    0.000000
   41.204103    0.938743    0.938743    0.938743    0.000000    0.000000    0.000000
   41.478797    0.939714    0.939714    0.939714    0.000000    0.000000    0.000000
   41.753491    0.940341    0.940341    0.940341    0.000000    0.000000    0.000000
   42.028185    0.941148    0.941148    0.941148    0.000000    0.000000    0.000000
   42.302879    0.941958    0.941958    0.941958    0.000000    0.000000    0.000000
   42.577573    0.942917    0.942917    0.942917    0.000000    0.000000    0.000000
   42.852267    0.943822    0.943822    0.943822    0.000000    0.000000    0.000000
   43.126961    0.944447    0.944447    0.944447    0.000000    0.000000    0.000000
   43.401655    0.945272    0.945272    0.945272    0.000000    0.000000    0.000000
   43.676349    0.946043    0.946043    0.946043    0.000000    0.000000    0.000000
   43.951043    0.946785    0.946785    0.946785    0.000000    0.000000    0.000000
   44.225737    0.947504    0.947504    0.947504    0.000000    0.000000    0.000000
   44.500431    0.948204    0.948204    0.948204    0.000000    0.000000    0.000000
   44.775125    0.948886    0.948886    0.948886    0.000000    0.000000    0.000000
   45.049819    0.949552    0.949552    0.949552    0.000000    0.000000    0.000000
   45.324513    0.950203    0.950203    0.950203    0.000000    0.000000    0.000000
   45.599207    0.950839    0.950839    0.950839    0.000000    0.000000    0.000000
   45.873901    0.951462    0.951462    0.951462    0.000000    0.000000    0.000000
   46.148595    0.952071    0.952071    0.952071    0.000000    0.000000    0.000000
   46.423289    0.952668    0.952668    0.952668    0.000000    0.000000    0.000000
   46.697983    0.953252    0.953252    0.953252    0.000000    0.000000    0.000000
   46.972677    0.953825    0.953825    0.953825    0.000000    0.000000    0.000000
   47.247371    0.954386    0.954386    0.954386    0.000000    0.000000    0.000000
   47.522065    0.954937    0.954937    0.954937    0.000000    0.000000    0.000000
   47.796759    0.955477    0.955477    0.955477    0.000000    0.000000    0.000000
   48.071453    0.956006    0.956006    0.956006    0.000000    0.000000    0.000000
   48.346147    0.956526    0.956526    0.956526    0.000000    0.000000    0.000000
   48.620841    0.957035    0.957035    0.957035    0.000000    0.000000    0.000000
   48.895535    0.957536    0.957536    0.957536    0.000000    0.000000    0.000000
   49.170229    0.958027    0.958027    0.958027    0.000000    0.000000    0.000000
   49.444923    0.958509    0.958509    0.958509    0.000000    0.000000    0.000000
   49.719617    0.958983    0.958983    0.958983    0.000000    0.000000    0.000000
   49.994311    0.959448    0.959448    0.959448    0.000000    0.000000    0.000000
   50.269005    0.959905    0.959905    0.959905    0.000000    0.000000    0.000000
   50.543699    0.960354    0.960354    0.960354    0.000000    0.000000    0.000000
   50.818393    0.960796    0.960796    0.960796    0.000000    0.000000    0.000000
   51.093087    0.961229    0.961229    0.961229    0.000000    0.000000    0.000000
   51.367781    0.961655    0.961655    0.961655    0.000000    0.000000    0.000000
   51.642475    0.962074    0.962074    0.962074    0.000000    0.000000    0.000000
   51.917169    0.962486    0.962486    0.962486    0.000000    0.000000    0.000000
   52.191863    0.962891    0.962891    0.962891    0.000000    0.000000    0.000000
   52.466557    0.963290    0.963290    0.963290    0.000000    0.000000    0.000000
   52.741251    0.963681    0.963681    0.963681    0.000000    0.000000    0.000000
   53.015945    0.964067    0.964067    0.964067    0.000000    0.000000    0.000000
   53.290639    0.964446    0.964446    0.964446    0.000000    0.000000    0.000000
   53.565333    0.964819    0.964819    0.964819    0.000000    0.000000    0.000000
   53.840027    0.965186    0.965186    0.965186    0.000000    0.000000    0.000000
   54.114721    0.965547    0.965547    0.965547    0.000000    0.000000    0.000000
   54.389415    0.965903    0.965903    0.965903    0.000000    0.000000    0.000000
   54.664109    0.966252    0.966252    0.966252    0.000000    0.000000    0.000000
 
 The outermost node in the dielectric function lies at epsilon=  10.0


--------------------------------------------------------------------------------------------------------


    OPTICS:  cpu time    2.58: real time    2.97
    4ORBIT:  cpu time    0.00: real time    0.00

 total amount of memory used by VASP on root node    44489. kBytes
========================================================================

   base      :      30000. kBytes
   nonl-proj :       9661. kBytes
   fftplans  :        918. kBytes
   grid      :       1447. kBytes
   one-center:         12. kBytes
   wavefun   :       2451. kBytes
 
  
  
 General timing and accounting informations for this job:
 ========================================================
  
                  Total CPU time used (sec):       74.819
                            User time (sec):       74.459
                          System time (sec):        0.360
                         Elapsed time (sec):       80.981
  
                   Maximum memory used (kb):      103408.
                   Average memory used (kb):           0.
  
                          Minor page faults:        18909
                          Major page faults:            0
                 Voluntary context switches:         7501
