<?xml version="1.0" encoding="ISO-8859-1"?>
<modeling>
 <generator>
  <i name="program" type="string">vasp </i>
  <i name="version" type="string">5.3.5  </i>
  <i name="subversion" type="string">31Mar14 (build Aug  4 2014 13:16:38) complex                          parallel </i>
  <i name="platform" type="string">GRPO3GRAPHENEAVX </i>
  <i name="date" type="string">2016 04 09 </i>
  <i name="time" type="string">00:34:50 </i>
 </generator>
 <incar>
  <i type="string" name="PREC">accurate</i>
  <i type="logical" name="ADDGRID"> T  </i>
  <i type="int" name="IBRION">    -1</i>
  <i name="EDIFF">      0.00001000</i>
  <i type="int" name="NSW">     0</i>
  <i name="ENCUT">    500.00000000</i>
  <i type="int" name="NBANDS">    48</i>
  <i type="int" name="NEDOS">  2000</i>
  <i type="logical" name="LREAL"> F  </i>
  <i type="int" name="ISMEAR">     1</i>
  <i name="SIGMA">      0.01000000</i>
  <i type="logical" name="LWAVE"> T  </i>
  <i type="logical" name="LCHARG"> F  </i>
  <i type="logical" name="LOPTICS"> T  </i>
  <i type="logical" name="LASPH"> T  </i>
  <i type="int" name="NOMEGA">   400</i>
  <i type="logical" name="LASPH"> T  </i>
 </incar>
 <kpoints>
  <generation param="Gamma">
   <v type="int" name="divisions">      12       12       12 </v>
   <v name="usershift">      0.00000000       0.00000000       0.00000000 </v>
   <v name="genvec1">      0.08333333       0.00000000       0.00000000 </v>
   <v name="genvec2">      0.00000000       0.08333333       0.00000000 </v>
   <v name="genvec3">      0.00000000       0.00000000       0.08333333 </v>
   <v name="shift">      0.00000000       0.00000000       0.00000000 </v>
  </generation>
  <varray name="kpointlist" >
   <v>       0.00000000       0.00000000       0.00000000 </v>
   <v>       0.08333333       0.00000000       0.00000000 </v>
   <v>       0.16666667       0.00000000       0.00000000 </v>
   <v>       0.25000000       0.00000000       0.00000000 </v>
   <v>       0.33333333       0.00000000       0.00000000 </v>
   <v>       0.41666667       0.00000000       0.00000000 </v>
   <v>       0.50000000       0.00000000       0.00000000 </v>
   <v>       0.08333333       0.08333333       0.00000000 </v>
   <v>       0.16666667       0.08333333       0.00000000 </v>
   <v>       0.25000000       0.08333333       0.00000000 </v>
   <v>       0.33333333       0.08333333       0.00000000 </v>
   <v>       0.41666667       0.08333333       0.00000000 </v>
   <v>       0.50000000       0.08333333       0.00000000 </v>
   <v>       0.16666667       0.16666667       0.00000000 </v>
   <v>       0.25000000       0.16666667       0.00000000 </v>
   <v>       0.33333333       0.16666667       0.00000000 </v>
   <v>       0.41666667       0.16666667       0.00000000 </v>
   <v>       0.50000000       0.16666667       0.00000000 </v>
   <v>       0.25000000       0.25000000       0.00000000 </v>
   <v>       0.33333333       0.25000000       0.00000000 </v>
   <v>       0.41666667       0.25000000       0.00000000 </v>
   <v>       0.50000000       0.25000000       0.00000000 </v>
   <v>       0.33333333       0.33333333       0.00000000 </v>
   <v>       0.41666667       0.33333333       0.00000000 </v>
   <v>       0.50000000       0.33333333       0.00000000 </v>
   <v>       0.41666667       0.41666667       0.00000000 </v>
   <v>       0.50000000       0.41666667       0.00000000 </v>
   <v>       0.50000000       0.50000000       0.00000000 </v>
   <v>       0.08333333       0.08333333       0.08333333 </v>
   <v>       0.16666667       0.08333333       0.08333333 </v>
   <v>       0.25000000       0.08333333       0.08333333 </v>
   <v>       0.33333333       0.08333333       0.08333333 </v>
   <v>       0.41666667       0.08333333       0.08333333 </v>
   <v>       0.50000000       0.08333333       0.08333333 </v>
   <v>       0.16666667       0.16666667       0.08333333 </v>
   <v>       0.25000000       0.16666667       0.08333333 </v>
   <v>       0.33333333       0.16666667       0.08333333 </v>
   <v>       0.41666667       0.16666667       0.08333333 </v>
   <v>       0.50000000       0.16666667       0.08333333 </v>
   <v>       0.25000000       0.25000000       0.08333333 </v>
   <v>       0.33333333       0.25000000       0.08333333 </v>
   <v>       0.41666667       0.25000000       0.08333333 </v>
   <v>       0.50000000       0.25000000       0.08333333 </v>
   <v>       0.33333333       0.33333333       0.08333333 </v>
   <v>       0.41666667       0.33333333       0.08333333 </v>
   <v>       0.50000000       0.33333333       0.08333333 </v>
   <v>       0.41666667       0.41666667       0.08333333 </v>
   <v>       0.50000000       0.41666667       0.08333333 </v>
   <v>       0.50000000       0.50000000       0.08333333 </v>
   <v>       0.16666667       0.16666667       0.16666667 </v>
   <v>       0.25000000       0.16666667       0.16666667 </v>
   <v>       0.33333333       0.16666667       0.16666667 </v>
   <v>       0.41666667       0.16666667       0.16666667 </v>
   <v>       0.50000000       0.16666667       0.16666667 </v>
   <v>       0.25000000       0.25000000       0.16666667 </v>
   <v>       0.33333333       0.25000000       0.16666667 </v>
   <v>       0.41666667       0.25000000       0.16666667 </v>
   <v>       0.50000000       0.25000000       0.16666667 </v>
   <v>       0.33333333       0.33333333       0.16666667 </v>
   <v>       0.41666667       0.33333333       0.16666667 </v>
   <v>       0.50000000       0.33333333       0.16666667 </v>
   <v>       0.41666667       0.41666667       0.16666667 </v>
   <v>       0.50000000       0.41666667       0.16666667 </v>
   <v>       0.50000000       0.50000000       0.16666667 </v>
   <v>       0.25000000       0.25000000       0.25000000 </v>
   <v>       0.33333333       0.25000000       0.25000000 </v>
   <v>       0.41666667       0.25000000       0.25000000 </v>
   <v>       0.50000000       0.25000000       0.25000000 </v>
   <v>       0.33333333       0.33333333       0.25000000 </v>
   <v>       0.41666667       0.33333333       0.25000000 </v>
   <v>       0.50000000       0.33333333       0.25000000 </v>
   <v>       0.41666667       0.41666667       0.25000000 </v>
   <v>       0.50000000       0.41666667       0.25000000 </v>
   <v>       0.50000000       0.50000000       0.25000000 </v>
   <v>       0.33333333       0.33333333       0.33333333 </v>
   <v>       0.41666667       0.33333333       0.33333333 </v>
   <v>       0.50000000       0.33333333       0.33333333 </v>
   <v>       0.41666667       0.41666667       0.33333333 </v>
   <v>       0.50000000       0.41666667       0.33333333 </v>
   <v>       0.50000000       0.50000000       0.33333333 </v>
   <v>       0.41666667       0.41666667       0.41666667 </v>
   <v>       0.50000000       0.41666667       0.41666667 </v>
   <v>       0.50000000       0.50000000       0.41666667 </v>
   <v>       0.50000000       0.50000000       0.50000000 </v>
  </varray>
  <varray name="weights" >
   <v>       0.00057870 </v>
   <v>       0.00347222 </v>
   <v>       0.00347222 </v>
   <v>       0.00347222 </v>
   <v>       0.00347222 </v>
   <v>       0.00347222 </v>
   <v>       0.00173611 </v>
   <v>       0.00694444 </v>
   <v>       0.01388889 </v>
   <v>       0.01388889 </v>
   <v>       0.01388889 </v>
   <v>       0.01388889 </v>
   <v>       0.00694444 </v>
   <v>       0.00694444 </v>
   <v>       0.01388889 </v>
   <v>       0.01388889 </v>
   <v>       0.01388889 </v>
   <v>       0.00694444 </v>
   <v>       0.00694444 </v>
   <v>       0.01388889 </v>
   <v>       0.01388889 </v>
   <v>       0.00694444 </v>
   <v>       0.00694444 </v>
   <v>       0.01388889 </v>
   <v>       0.00694444 </v>
   <v>       0.00694444 </v>
   <v>       0.00694444 </v>
   <v>       0.00173611 </v>
   <v>       0.00462963 </v>
   <v>       0.01388889 </v>
   <v>       0.01388889 </v>
   <v>       0.01388889 </v>
   <v>       0.01388889 </v>
   <v>       0.00694444 </v>
   <v>       0.01388889 </v>
   <v>       0.02777778 </v>
   <v>       0.02777778 </v>
   <v>       0.02777778 </v>
   <v>       0.01388889 </v>
   <v>       0.01388889 </v>
   <v>       0.02777778 </v>
   <v>       0.02777778 </v>
   <v>       0.01388889 </v>
   <v>       0.01388889 </v>
   <v>       0.02777778 </v>
   <v>       0.01388889 </v>
   <v>       0.01388889 </v>
   <v>       0.01388889 </v>
   <v>       0.00347222 </v>
   <v>       0.00462963 </v>
   <v>       0.01388889 </v>
   <v>       0.01388889 </v>
   <v>       0.01388889 </v>
   <v>       0.00694444 </v>
   <v>       0.01388889 </v>
   <v>       0.02777778 </v>
   <v>       0.02777778 </v>
   <v>       0.01388889 </v>
   <v>       0.01388889 </v>
   <v>       0.02777778 </v>
   <v>       0.01388889 </v>
   <v>       0.01388889 </v>
   <v>       0.01388889 </v>
   <v>       0.00347222 </v>
   <v>       0.00462963 </v>
   <v>       0.01388889 </v>
   <v>       0.01388889 </v>
   <v>       0.00694444 </v>
   <v>       0.01388889 </v>
   <v>       0.02777778 </v>
   <v>       0.01388889 </v>
   <v>       0.01388889 </v>
   <v>       0.01388889 </v>
   <v>       0.00347222 </v>
   <v>       0.00462963 </v>
   <v>       0.01388889 </v>
   <v>       0.00694444 </v>
   <v>       0.01388889 </v>
   <v>       0.01388889 </v>
   <v>       0.00347222 </v>
   <v>       0.00462963 </v>
   <v>       0.00694444 </v>
   <v>       0.00347222 </v>
   <v>       0.00057870 </v>
  </varray>
 </kpoints>
 <parameters>
  <separator name="general" >
   <i type="string" name="SYSTEM">unknown system</i>
   <i type="logical" name="LCOMPAT"> F  </i>
  </separator>
  <separator name="electronic" >
   <i type="string" name="PREC">accura</i>
   <i name="ENMAX">    500.00000000</i>
   <i name="ENAUG">    291.05200000</i>
   <i name="EDIFF">      0.00001000</i>
   <i type="int" name="IALGO">    38</i>
   <i type="int" name="IWAVPR">    10</i>
   <i type="int" name="NBANDS">    48</i>
   <i name="NELECT">     12.00000000</i>
   <i type="int" name="TURBO">     0</i>
   <i type="int" name="IRESTART">     0</i>
   <i type="int" name="NREBOOT">     0</i>
   <i type="int" name="NMIN">     0</i>
   <i name="EREF">      0.00000000</i>
   <separator name="electronic smearing" >
    <i type="int" name="ISMEAR">     1</i>
    <i name="SIGMA">      0.01000000</i>
    <i name="KSPACING">      0.50000000</i>
    <i type="logical" name="KGAMMA"> T  </i>
   </separator>
   <separator name="electronic projectors" >
    <i type="logical" name="LREAL"> F  </i>
    <v name="ROPT">      0.00000000</v>
    <i type="int" name="LMAXPAW">  -100</i>
    <i type="int" name="LMAXMIX">     2</i>
    <i type="logical" name="NLSPLINE"> F  </i>
   </separator>
   <separator name="electronic startup" >
    <i type="int" name="ISTART">     1</i>
    <i type="int" name="ICHARG">     0</i>
    <i type="int" name="INIWAV">     1</i>
   </separator>
   <separator name="electronic spin" >
    <i type="int" name="ISPIN">     1</i>
    <i type="logical" name="LNONCOLLINEAR"> F  </i>
    <v name="MAGMOM">      1.00000000      1.00000000      1.00000000      1.00000000</v>
    <i name="NUPDOWN">     -1.00000000</i>
    <i type="logical" name="LSORBIT"> F  </i>
    <v name="SAXIS">      0.00000000      0.00000000      1.00000000</v>
    <i type="logical" name="LSPIRAL"> F  </i>
    <v name="QSPIRAL">      0.00000000      0.00000000      0.00000000</v>
    <i type="logical" name="LZEROZ"> F  </i>
   </separator>
   <separator name="electronic exchange-correlation" >
    <i type="logical" name="LASPH"> T  </i>
    <i type="logical" name="LMETAGGA"> F  </i>
   </separator>
   <separator name="electronic convergence" >
    <i type="int" name="NELM">    60</i>
    <i type="int" name="NELMDL">     0</i>
    <i type="int" name="NELMIN">     2</i>
    <i name="ENINI">    500.00000000</i>
    <separator name="electronic convergence detail" >
     <i type="logical" name="LDIAG"> T  </i>
     <i type="logical" name="LSUBROT"> F  </i>
     <i name="WEIMIN">      0.00000000</i>
     <i name="EBREAK">      0.00000005</i>
     <i name="DEPER">      0.30000000</i>
     <i type="int" name="NRMM">     4</i>
     <i name="TIME">      0.40000000</i>
    </separator>
   </separator>
   <separator name="electronic mixer" >
    <i name="AMIX">      0.40000000</i>
    <i name="BMIX">      1.00000000</i>
    <i name="AMIN">      0.10000000</i>
    <i name="AMIX_MAG">      1.60000000</i>
    <i name="BMIX_MAG">      1.00000000</i>
    <separator name="electronic mixer details" >
     <i type="int" name="IMIX">     4</i>
     <i type="int" name="MAXMIX">   -45</i>
     <i name="WC">    100.00000000</i>
     <i type="int" name="INIMIX">     1</i>
     <i type="int" name="MIXPRE">     1</i>
     <i type="int" name="MREMOVE">     5</i>
    </separator>
   </separator>
   <separator name="electronic dipolcorrection" >
    <i type="logical" name="LDIPOL"> F  </i>
    <i type="logical" name="LMONO"> F  </i>
    <i type="int" name="IDIPOL">     0</i>
    <i name="EPSILON">      1.00000000</i>
    <v name="DIPOL">   -100.00000000   -100.00000000   -100.00000000</v>
    <i name="EFIELD">      0.00000000</i>
   </separator>
  </separator>
  <separator name="grids" >
   <i type="int" name="NGX">    30</i>
   <i type="int" name="NGY">    30</i>
   <i type="int" name="NGZ">    30</i>
   <i type="int" name="NGXF">    60</i>
   <i type="int" name="NGYF">    60</i>
   <i type="int" name="NGZF">    60</i>
   <i type="logical" name="ADDGRID"> T  </i>
  </separator>
  <separator name="ionic" >
   <i type="int" name="NSW">     0</i>
   <i type="int" name="IBRION">    -1</i>
   <i type="int" name="ISIF">     2</i>
   <i name="PSTRESS">      0.00000000</i>
   <i name="EDIFFG">      0.00010000</i>
   <i type="int" name="NFREE">     0</i>
   <i name="POTIM">      0.50000000</i>
   <i name="SMASS">     -3.00000000</i>
   <i name="SCALEE">      1.00000000</i>
  </separator>
  <separator name="ionic md" >
   <i name="TEBEG">      0.00010000</i>
   <i name="TEEND">      0.00010000</i>
   <i type="int" name="NBLOCK">     1</i>
   <i type="int" name="KBLOCK">     1</i>
   <i type="int" name="NPACO">   256</i>
   <i name="APACO">     16.00000000</i>
  </separator>
  <separator name="symmetry" >
   <i type="int" name="ISYM">     2</i>
   <i name="SYMPREC">      0.00001000</i>
  </separator>
  <separator name="dos" >
   <i type="logical" name="LORBIT"> F  </i>
   <v name="RWIGS">     -1.00000000</v>
   <i type="int" name="NEDOS">  2000</i>
   <i name="EMIN">     10.00000000</i>
   <i name="EMAX">    -10.00000000</i>
   <i name="EFERMI">      0.00000000</i>
  </separator>
  <separator name="writing" >
   <i type="int" name="NWRITE">     2</i>
   <i type="logical" name="LWAVE"> T  </i>
   <i type="logical" name="LCHARG"> F  </i>
   <i type="logical" name="LPARD"> F  </i>
   <i type="logical" name="LVTOT"> F  </i>
   <i type="logical" name="LVHAR"> F  </i>
   <i type="logical" name="LELF"> F  </i>
   <i type="logical" name="LOPTICS"> T  </i>
   <v name="STM">      0.00000000      0.00000000      0.00000000      0.00000000      0.00000000      0.00000000      0.00000000</v>
  </separator>
  <separator name="performance" >
   <i type="int" name="NPAR">    48</i>
   <i type="int" name="NSIM">     4</i>
   <i type="int" name="NBLK">    -1</i>
   <i type="logical" name="LPLANE"> T  </i>
   <i type="logical" name="LSCALAPACK"> T  </i>
   <i type="logical" name="LSCAAWARE"> T  </i>
   <i type="logical" name="LSCALU"> F  </i>
   <i type="logical" name="LASYNC"> F  </i>
   <i type="logical" name="LORBITALREAL"> F  </i>
  </separator>
  <separator name="miscellaneous" >
   <i type="int" name="IDIOT">     3</i>
   <i type="logical" name="LMUSIC"> F  </i>
   <v name="POMASS">     26.98100000</v>
   <v name="DARWINR">      0.00000000</v>
   <v name="DARWINV">      1.00000000</v>
   <i type="logical" name="LCORR"> T  </i>
  </separator>
  <i type="logical" name="GGA_COMPAT"> T  </i>
  <i type="logical" name="LBERRY"> F  </i>
  <i type="int" name="ICORELEVEL">     0</i>
  <i type="logical" name="LDAU"> F  </i>
  <i type="int" name="I_CONSTRAINED_M">     0</i>
  <separator name="electronic exchange-correlation" >
   <i type="string" name="GGA">--</i>
   <i type="int" name="VOSKOWN">     0</i>
   <i type="logical" name="LHFCALC"> F  </i>
   <i type="string" name="PRECFOCK"></i>
   <i type="logical" name="LSYMGRAD"> F  </i>
   <i type="logical" name="LHFONE"> F  </i>
   <i type="logical" name="LRHFCALC"> F  </i>
   <i type="logical" name="LTHOMAS"> F  </i>
   <i type="logical" name="LMODELHF"> F  </i>
   <i name="ENCUT4O">     -1.00000000</i>
   <i type="int" name="EXXOEP">     0</i>
   <i type="int" name="FOURORBIT">     0</i>
   <i name="AEXX">      0.00000000</i>
   <i name="HFALPHA">      0.00000000</i>
   <i name="MCALPHA">      0.00000000</i>
   <i name="ALDAX">      1.00000000</i>
   <i name="AGGAX">      1.00000000</i>
   <i name="ALDAC">      1.00000000</i>
   <i name="AGGAC">      1.00000000</i>
   <i type="int" name="NKREDX">     1</i>
   <i type="int" name="NKREDY">     1</i>
   <i type="int" name="NKREDZ">     1</i>
   <i type="logical" name="SHIFTRED"> F  </i>
   <i type="logical" name="ODDONLY"> F  </i>
   <i type="logical" name="EVENONLY"> F  </i>
   <i type="int" name="LMAXFOCK">     0</i>
   <i type="int" name="NMAXFOCKAE">     0</i>
   <i type="logical" name="LFOCKAEDFT"> F  </i>
   <i name="HFSCREEN">      0.00000000</i>
   <i name="HFSCREENC">      0.00000000</i>
   <i type="int" name="NBANDSGWLOW">     0</i>
  </separator>
  <separator name="vdW DFT" >
   <i type="logical" name="LUSE_VDW"> F  </i>
   <i name="Zab_VDW">     -0.84910000</i>
   <i name="PARAM1">      0.12340000</i>
   <i name="PARAM2">      1.00000000</i>
   <i name="PARAM3">      0.00000000</i>
  </separator>
  <separator name="model GW" >
   <i type="int" name="MODEL_GW">     0</i>
   <i name="MODEL_EPS0">      9.89209811</i>
   <i name="MODEL_ALPHA">      1.00000000</i>
  </separator>
  <separator name="linear response parameters" >
   <i type="logical" name="LEPSILON"> F  </i>
   <i type="logical" name="LRPA"> F  </i>
   <i type="logical" name="LNABLA"> F  </i>
   <i type="logical" name="LVEL"> F  </i>
   <i type="int" name="KINTER">     0</i>
   <i name="CSHIFT">      0.10000000</i>
   <i name="OMEGAMAX">     -1.00000000</i>
   <i name="DEG_THRESHOLD">      0.00200000</i>
  </separator>
  <separator name="orbital magnetization" >
   <i type="logical" name="NUCIND"> F  </i>
   <v name="MAGPOS">      0.00000000      0.00000000      0.00000000</v>
   <i type="logical" name="LNICSALL"> T  </i>
   <i type="logical" name="ORBITALMAG"> F  </i>
   <i type="logical" name="LMAGBLOCH"> F  </i>
   <i type="logical" name="LCHIMAG"> F  </i>
   <i type="logical" name="LGAUGE"> T  </i>
   <i type="int" name="MAGATOM">     0</i>
   <v name="MAGDIPOL">      0.00000000      0.00000000      0.00000000</v>
   <v name="AVECCONST">      0.00000000      0.00000000      0.00000000</v>
  </separator>
  <separator name="response functions" >
   <i type="logical" name="LADDER"> F  </i>
   <i type="logical" name="LFXC"> F  </i>
   <i type="logical" name="LHARTREE"> T  </i>
   <i type="int" name="IBSE">     0</i>
   <i type="logical" name="LTCTE"> F  </i>
   <i type="logical" name="LTETE"> F  </i>
   <i type="logical" name="LTRIPLET"> F  </i>
   <i type="logical" name="LFXCEPS"> F  </i>
   <i type="logical" name="LFXHEG"> F  </i>
   <i type="logical" name="L2ORDER"> F  </i>
   <i type="logical" name="LUSEW"> F  </i>
   <i name="ENCUTGW">     -2.00000000</i>
   <i name="ENCUTGWSOFT">     -2.00000000</i>
   <i name="ENCUTLF">     -1.00000000</i>
   <i type="int" name="LMAXMP2">    -1</i>
   <i name="SCISSOR">      0.00000000</i>
   <i type="int" name="NOMEGA">   400</i>
   <i type="int" name="NOMEGAR">     0</i>
   <i type="int" name="NBANDSGW">    -1</i>
   <i type="int" name="NBANDSO">    -1</i>
   <i type="int" name="NBANDSV">    -1</i>
   <i type="int" name="NELM">     1</i>
   <i type="int" name="DIM">     3</i>
   <i type="int" name="ANTIRES">     0</i>
   <i name="OMEGAMAX">    -30.00000000</i>
   <i name="OMEGAMIN">    -30.00000000</i>
   <i name="OMEGATL">   -200.00000000</i>
   <i type="int" name="OMEGAGRID">     0</i>
   <i name="CSHIFT">     -0.10000000</i>
   <i type="logical" name="SELFENERGY"> F  </i>
   <i type="logical" name="LSPECTRAL"> T  </i>
   <i type="logical" name="ODDONLYGW"> F  </i>
   <i type="logical" name="EVENONLYGW"> F  </i>
   <i type="int" name="NKREDLFX">     1</i>
   <i type="int" name="NKREDLFY">     1</i>
   <i type="int" name="NKREDLFZ">     1</i>
   <i type="int" name="MAXMEM">  1800</i>
   <i type="int" name="TELESCOPE">     0</i>
   <i type="int" name="TAUPAR">     1</i>
  </separator>
  <separator name="External order field" >
   <i name="OFIELD_KAPPA">      0.00000000</i>
   <v name="OFIELD_K">      0.00000000      0.00000000      0.00000000</v>
   <i name="OFIELD_Q6_NEAR">      0.00000000</i>
   <i name="OFIELD_Q6_FAR">      0.00000000</i>
   <i name="OFIELD_A">      0.00000000</i>
  </separator>
 </parameters>
 <atominfo>
  <atoms>       4 </atoms>
  <types>       1 </types>
  <array name="atoms" >
   <dimension dim="1">ion</dimension>
   <field type="string">element</field>
   <field type="int">atomtype</field>
   <set>
    <rc><c>Al</c><c>   1</c></rc>
    <rc><c>Al</c><c>   1</c></rc>
    <rc><c>Al</c><c>   1</c></rc>
    <rc><c>Al</c><c>   1</c></rc>
   </set>
  </array>
  <array name="atomtypes" >
   <dimension dim="1">type</dimension>
   <field type="int">atomspertype</field>
   <field type="string">element</field>
   <field>mass</field>
   <field>valence</field>
   <field type="string">pseudopotential</field>
   <set>
    <rc><c>   4</c><c>Al</c><c>     26.98100000</c><c>      3.00000000</c><c>  PAW_PBE Al 04Jan2001                  </c></rc>
   </set>
  </array>
 </atominfo>
 <structure name="initialpos" >
  <crystal>
   <varray name="basis" >
    <v>       4.04016454       0.00000000       0.00000000 </v>
    <v>       0.00000000       4.04016454       0.00000000 </v>
    <v>       0.00000000       0.00000000       4.04016454 </v>
   </varray>
   <i name="volume">     65.94732076 </i>
   <varray name="rec_basis" >
    <v>       0.24751467       0.00000000       0.00000000 </v>
    <v>       0.00000000       0.24751467       0.00000000 </v>
    <v>       0.00000000       0.00000000       0.24751467 </v>
   </varray>
  </crystal>
  <varray name="positions" >
   <v>       0.00000000       0.00000000       0.00000000 </v>
   <v>       0.00000000       0.50000000       0.50000000 </v>
   <v>       0.50000000       0.00000000       0.50000000 </v>
   <v>       0.50000000       0.50000000       0.00000000 </v>
  </varray>
 </structure>
 <calculation>
  <scstep>
   <time name="dav">    4.35    4.36</time>
   <time name="total">    4.56    4.76</time>
   <energy>
    <i name="alphaZ">     -0.81490738 </i>
    <i name="ewald">   -294.14116362 </i>
    <i name="hartreedc">     -0.01551287 </i>
    <i name="XCdc">   -125.22733694 </i>
    <i name="pawpsdc">    759.29313818 </i>
    <i name="pawaedc">   -630.77521217 </i>
    <i name="eentropy">     -0.00009437 </i>
    <i name="bandstr">     76.71541616 </i>
    <i name="atom">    214.15364153 </i>
    <i name="e_fr_energy">     -0.81203148 </i>
    <i name="e_wo_entrp">     -0.81193712 </i>
    <i name="e_0_energy">     -0.81200003 </i>
   </energy>
  </scstep>
  <scstep>
   <time name="dav">   15.31   15.34</time>
   <time name="total">   15.53   15.73</time>
   <energy>
    <i name="e_fr_energy">    -15.13645801 </i>
    <i name="e_wo_entrp">    -15.13647834 </i>
    <i name="e_0_energy">    -15.13646478 </i>
   </energy>
  </scstep>
  <scstep>
   <time name="dav">    4.91    4.92</time>
   <time name="total">    5.13    5.57</time>
   <energy>
    <i name="e_fr_energy">    -14.98460564 </i>
    <i name="e_wo_entrp">    -14.98462992 </i>
    <i name="e_0_energy">    -14.98461373 </i>
   </energy>
  </scstep>
  <scstep>
   <time name="dav">   14.24   14.27</time>
   <time name="total">   14.46   14.74</time>
   <energy>
    <i name="e_fr_energy">    -14.97317591 </i>
    <i name="e_wo_entrp">    -14.97321029 </i>
    <i name="e_0_energy">    -14.97318737 </i>
   </energy>
  </scstep>
  <scstep>
   <time name="dav">    5.81    5.83</time>
   <time name="total">    6.02    6.44</time>
   <energy>
    <i name="e_fr_energy">    -14.97313563 </i>
    <i name="e_wo_entrp">    -14.97317094 </i>
    <i name="e_0_energy">    -14.97314740 </i>
   </energy>
  </scstep>
  <scstep>
   <time name="dav">   13.81   13.84</time>
   <time name="total">   14.03   14.36</time>
   <energy>
    <i name="e_fr_energy">    -14.97305295 </i>
    <i name="e_wo_entrp">    -14.97308871 </i>
    <i name="e_0_energy">    -14.97306487 </i>
   </energy>
  </scstep>
  <scstep>
   <time name="dav">    6.72    6.74</time>
   <time name="total">    6.85    7.14</time>
   <energy>
    <i name="alphaZ">     -0.81490738 </i>
    <i name="ewald">   -294.14116362 </i>
    <i name="hartreedc">     -0.41520496 </i>
    <i name="XCdc">   -104.51383267 </i>
    <i name="pawpsdc">    562.05632016 </i>
    <i name="pawaedc">   -434.28644254 </i>
    <i name="eentropy">      0.00003573 </i>
    <i name="bandstr">     42.98850013 </i>
    <i name="atom">    214.15364153 </i>
    <i name="e_fr_energy">    -14.97305363 </i>
    <i name="e_wo_entrp">    -14.97308936 </i>
    <i name="e_0_energy">    -14.97306554 </i>
   </energy>
  </scstep>
  <structure>
   <crystal>
    <varray name="basis" >
     <v>       4.04016454       0.00000000       0.00000000 </v>
     <v>       0.00000000       4.04016454       0.00000000 </v>
     <v>       0.00000000       0.00000000       4.04016454 </v>
    </varray>
    <i name="volume">     65.94732076 </i>
    <varray name="rec_basis" >
     <v>       0.24751467       0.00000000       0.00000000 </v>
     <v>       0.00000000       0.24751467       0.00000000 </v>
     <v>       0.00000000       0.00000000       0.24751467 </v>
    </varray>
   </crystal>
   <varray name="positions" >
    <v>       0.00000000       0.00000000       0.00000000 </v>
    <v>       0.00000000       0.50000000       0.50000000 </v>
    <v>       0.50000000       0.00000000       0.50000000 </v>
    <v>       0.50000000       0.50000000       0.00000000 </v>
   </varray>
  </structure>
  <varray name="forces" >
   <v>       0.00000000       0.00000000       0.00000000 </v>
   <v>       0.00000000       0.00000000       0.00000000 </v>
   <v>       0.00000000       0.00000000       0.00000000 </v>
   <v>       0.00000000       0.00000000       0.00000000 </v>
  </varray>
  <varray name="stress" >
   <v>      -1.81815390       0.00000000       0.00000000 </v>
   <v>       0.00000000      -1.81815390       0.00000000 </v>
   <v>       0.00000000       0.00000000      -1.81815390 </v>
  </varray>
  <energy>
   <i name="e_fr_energy">    -14.97305363 </i>
   <i name="e_wo_entrp">    -14.97306554 </i>
   <i name="e_0_energy">      0.00003573 </i>
  </energy>
  <time name="totalsc">   68.84   73.04</time>
  <eigenvalues>
   <array>
    <dimension dim="1">band</dimension>
    <dimension dim="2">kpoint</dimension>
    <dimension dim="3">spin</dimension>
    <field>eigene</field>
    <field>occ</field>
    <set>
     <set comment="spin 1">
      <set comment="kpoint 1">
       <r>   -3.1319    1.0000 </r>
       <r>    5.0821    1.0000 </r>
       <r>    5.0821    1.0000 </r>
       <r>    5.0821    1.0000 </r>
       <r>    6.4073    1.0000 </r>
       <r>    6.4073    1.0000 </r>
       <r>    6.4073    1.0000 </r>
       <r>   13.2660    0.0000 </r>
       <r>   13.2660    0.0000 </r>
       <r>   13.2660    0.0000 </r>
       <r>   13.6060    0.0000 </r>
       <r>   13.6060    0.0000 </r>
       <r>   13.6060    0.0000 </r>
       <r>   13.6060    0.0000 </r>
       <r>   13.6060    0.0000 </r>
       <r>   13.6060    0.0000 </r>
       <r>   17.0838    0.0000 </r>
       <r>   17.0838    0.0000 </r>
       <r>   17.0838    0.0000 </r>
       <r>   20.6316    0.0000 </r>
       <r>   20.6316    0.0000 </r>
       <r>   20.6316    0.0000 </r>
       <r>   22.1289    0.0000 </r>
       <r>   22.1289    0.0000 </r>
       <r>   22.1289    0.0000 </r>
       <r>   24.4794    0.0000 </r>
       <r>   27.4339    0.0000 </r>
       <r>   27.4339    0.0000 </r>
       <r>   30.3059    0.0000 </r>
       <r>   32.6581    0.0000 </r>
       <r>   32.6581    0.0000 </r>
       <r>   32.6581    0.0000 </r>
       <r>   33.4254    0.0000 </r>
       <r>   33.4254    0.0000 </r>
       <r>   33.4254    0.0000 </r>
       <r>   34.9367    0.0000 </r>
       <r>   34.9367    0.0000 </r>
       <r>   34.9367    0.0000 </r>
       <r>   34.9367    0.0000 </r>
       <r>   34.9367    0.0000 </r>
       <r>   34.9367    0.0000 </r>
       <r>   40.6076    0.0000 </r>
       <r>   40.6076    0.0000 </r>
       <r>   40.6076    0.0000 </r>
       <r>   41.2859    0.0000 </r>
       <r>   41.4235    0.0000 </r>
       <r>   41.4235    0.0000 </r>
       <r>   41.4235    0.0000 </r>
      </set>
      <set comment="kpoint 2">
       <r>   -3.0690    1.0000 </r>
       <r>    4.2139    1.0000 </r>
       <r>    5.1398    1.0000 </r>
       <r>    5.1398    1.0000 </r>
       <r>    6.4682    1.0000 </r>
       <r>    6.4682    1.0000 </r>
       <r>    7.3845    1.0000 </r>
       <r>   12.0872    0.0000 </r>
       <r>   12.0872    0.0000 </r>
       <r>   13.1696    0.0000 </r>
       <r>   13.1696    0.0000 </r>
       <r>   13.3281    0.0000 </r>
       <r>   13.6594    0.0000 </r>
       <r>   13.6594    0.0000 </r>
       <r>   14.9013    0.0000 </r>
       <r>   14.9013    0.0000 </r>
       <r>   17.1415    0.0000 </r>
       <r>   17.6142    0.0000 </r>
       <r>   17.6142    0.0000 </r>
       <r>   19.9485    0.0000 </r>
       <r>   19.9485    0.0000 </r>
       <r>   20.1646    0.0000 </r>
       <r>   21.9741    0.0000 </r>
       <r>   22.9048    0.0000 </r>
       <r>   22.9048    0.0000 </r>
       <r>   25.0722    0.0000 </r>
       <r>   26.6156    0.0000 </r>
       <r>   27.4923    0.0000 </r>
       <r>   30.2522    0.0000 </r>
       <r>   32.7295    0.0000 </r>
       <r>   32.7295    0.0000 </r>
       <r>   33.0843    0.0000 </r>
       <r>   33.0843    0.0000 </r>
       <r>   33.1819    0.0000 </r>
       <r>   33.6576    0.0000 </r>
       <r>   34.1268    0.0000 </r>
       <r>   34.1268    0.0000 </r>
       <r>   34.7209    0.0000 </r>
       <r>   34.7209    0.0000 </r>
       <r>   34.9507    0.0000 </r>
       <r>   34.9507    0.0000 </r>
       <r>   40.8913    0.0000 </r>
       <r>   40.8913    0.0000 </r>
       <r>   40.9620    0.0000 </r>
       <r>   40.9621    0.0000 </r>
       <r>   40.9754    0.0000 </r>
       <r>   40.9938    0.0000 </r>
       <r>   41.4570    0.0000 </r>
      </set>
      <set comment="kpoint 3">
       <r>   -2.8802    1.0000 </r>
       <r>    3.0094    1.0000 </r>
       <r>    5.3127    1.0000 </r>
       <r>    5.3127    1.0000 </r>
       <r>    6.6499    1.0000 </r>
       <r>    6.6499    1.0000 </r>
       <r>    8.9160    0.0000 </r>
       <r>   10.8709    0.0000 </r>
       <r>   10.8709    0.0000 </r>
       <r>   12.2702    0.0000 </r>
       <r>   12.2702    0.0000 </r>
       <r>   13.5144    0.0000 </r>
       <r>   13.8198    0.0000 </r>
       <r>   13.8198    0.0000 </r>
       <r>   16.4665    0.0000 </r>
       <r>   16.4665    0.0000 </r>
       <r>   17.3135    0.0000 </r>
       <r>   18.7945    0.0000 </r>
       <r>   18.7945    0.0000 </r>
       <r>   18.9158    0.0000 </r>
       <r>   18.9158    0.0000 </r>
       <r>   19.2045    0.0000 </r>
       <r>   21.5563    0.0000 </r>
       <r>   24.2111    0.0000 </r>
       <r>   24.2111    0.0000 </r>
       <r>   24.7793    0.0000 </r>
       <r>   26.4095    0.0000 </r>
       <r>   27.6669    0.0000 </r>
       <r>   30.6231    0.0000 </r>
       <r>   32.1267    0.0000 </r>
       <r>   32.1267    0.0000 </r>
       <r>   32.3407    0.0000 </r>
       <r>   32.3407    0.0000 </r>
       <r>   32.5680    0.0000 </r>
       <r>   32.9476    0.0000 </r>
       <r>   32.9476    0.0000 </r>
       <r>   34.1453    0.0000 </r>
       <r>   34.1453    0.0000 </r>
       <r>   34.9891    0.0000 </r>
       <r>   34.9891    0.0000 </r>
       <r>   35.4157    0.0000 </r>
       <r>   39.7033    0.0000 </r>
       <r>   40.3091    0.0000 </r>
       <r>   40.3091    0.0000 </r>
       <r>   41.3884    0.0000 </r>
       <r>   41.3887    0.0000 </r>
       <r>   41.5118    0.0000 </r>
       <r>   41.5241    0.0000 </r>
      </set>
      <set comment="kpoint 4">
       <r>   -2.5662    1.0000 </r>
       <r>    1.8733    1.0000 </r>
       <r>    5.6010    1.0000 </r>
       <r>    5.6010    1.0000 </r>
       <r>    6.9492    1.0000 </r>
       <r>    6.9492    1.0000 </r>
       <r>    9.7684    0.0000 </r>
       <r>    9.7684    0.0000 </r>
       <r>   10.5963    0.0000 </r>
       <r>   11.2929    0.0000 </r>
       <r>   11.2929    0.0000 </r>
       <r>   13.8245    0.0000 </r>
       <r>   14.0871    0.0000 </r>
       <r>   14.0871    0.0000 </r>
       <r>   17.5961    0.0000 </r>
       <r>   17.9262    0.0000 </r>
       <r>   17.9262    0.0000 </r>
       <r>   18.1485    0.0000 </r>
       <r>   18.1485    0.0000 </r>
       <r>   18.1646    0.0000 </r>
       <r>   20.2354    0.0000 </r>
       <r>   20.2354    0.0000 </r>
       <r>   20.9743    0.0000 </r>
       <r>   22.6519    0.0000 </r>
       <r>   25.6399    0.0000 </r>
       <r>   25.6399    0.0000 </r>
       <r>   27.9565    0.0000 </r>
       <r>   28.0779    0.0000 </r>
       <r>   30.2408    0.0000 </r>
       <r>   30.2408    0.0000 </r>
       <r>   30.7333    0.0000 </r>
       <r>   30.7333    0.0000 </r>
       <r>   31.3535    0.0000 </r>
       <r>   31.7857    0.0000 </r>
       <r>   33.3256    0.0000 </r>
       <r>   33.3256    0.0000 </r>
       <r>   33.3350    0.0000 </r>
       <r>   33.3350    0.0000 </r>
       <r>   35.0427    0.0000 </r>
       <r>   35.0427    0.0000 </r>
       <r>   37.0927    0.0000 </r>
       <r>   38.3536    0.0000 </r>
       <r>   40.0204    0.0000 </r>
       <r>   40.0204    0.0000 </r>
       <r>   40.3784    0.0000 </r>
       <r>   40.3784    0.0000 </r>
       <r>   41.4222    0.0000 </r>
       <r>   41.7262    0.0000 </r>
      </set>
      <set comment="kpoint 5">
       <r>   -2.1277    1.0000 </r>
       <r>    0.8406    1.0000 </r>
       <r>    6.0050    1.0000 </r>
       <r>    6.0050    1.0000 </r>
       <r>    7.3575    1.0000 </r>
       <r>    7.3575    1.0000 </r>
       <r>    8.7825    0.0000 </r>
       <r>    8.7825    0.0000 </r>
       <r>   10.3663    0.0000 </r>
       <r>   10.3663    0.0000 </r>
       <r>   12.3893    0.0000 </r>
       <r>   14.2575    0.0000 </r>
       <r>   14.4615    0.0000 </r>
       <r>   14.4615    0.0000 </r>
       <r>   17.0261    0.0000 </r>
       <r>   17.0261    0.0000 </r>
       <r>   17.1749    0.0000 </r>
       <r>   17.9836    0.0000 </r>
       <r>   19.9420    0.0000 </r>
       <r>   19.9420    0.0000 </r>
       <r>   20.3115    0.0000 </r>
       <r>   20.4888    0.0000 </r>
       <r>   21.7974    0.0000 </r>
       <r>   21.7974    0.0000 </r>
       <r>   27.1165    0.0000 </r>
       <r>   27.1165    0.0000 </r>
       <r>   28.0710    0.0000 </r>
       <r>   28.0710    0.0000 </r>
       <r>   28.3592    0.0000 </r>
       <r>   29.1146    0.0000 </r>
       <r>   29.1146    0.0000 </r>
       <r>   29.9471    0.0000 </r>
       <r>   30.9699    0.0000 </r>
       <r>   32.2863    0.0000 </r>
       <r>   32.3627    0.0000 </r>
       <r>   32.3627    0.0000 </r>
       <r>   33.8883    0.0000 </r>
       <r>   33.8883    0.0000 </r>
       <r>   35.0980    0.0000 </r>
       <r>   35.0980    0.0000 </r>
       <r>   37.0185    0.0000 </r>
       <r>   38.5154    0.0000 </r>
       <r>   38.6909    0.0000 </r>
       <r>   38.6909    0.0000 </r>
       <r>   38.8734    0.0000 </r>
       <r>   39.9415    0.0000 </r>
       <r>   39.9415    0.0000 </r>
       <r>   41.9474    0.0000 </r>
      </set>
      <set comment="kpoint 6">
       <r>   -1.5660    1.0000 </r>
       <r>   -0.0795    1.0000 </r>
       <r>    6.5248    1.0000 </r>
       <r>    6.5248    1.0000 </r>
       <r>    7.8429    1.0000 </r>
       <r>    7.8429    1.0000 </r>
       <r>    7.9133    1.0000 </r>
       <r>    7.9133    1.0000 </r>
       <r>    9.5608    0.0000 </r>
       <r>    9.5608    0.0000 </r>
       <r>   14.2836    0.0000 </r>
       <r>   14.8124    0.0000 </r>
       <r>   14.9431    0.0000 </r>
       <r>   14.9431    0.0000 </r>
       <r>   16.2265    0.0000 </r>
       <r>   16.2265    0.0000 </r>
       <r>   16.2768    0.0000 </r>
       <r>   18.3408    0.0000 </r>
       <r>   18.4665    0.0000 </r>
       <r>   19.6600    0.0000 </r>
       <r>   21.8415    0.0000 </r>
       <r>   21.8415    0.0000 </r>
       <r>   23.3729    0.0000 </r>
       <r>   23.3729    0.0000 </r>
       <r>   25.9232    0.0000 </r>
       <r>   25.9232    0.0000 </r>
       <r>   27.4703    0.0000 </r>
       <r>   27.4703    0.0000 </r>
       <r>   28.5833    0.0000 </r>
       <r>   28.5833    0.0000 </r>
       <r>   28.8708    0.0000 </r>
       <r>   30.1910    0.0000 </r>
       <r>   31.2441    0.0000 </r>
       <r>   31.2441    0.0000 </r>
       <r>   31.9748    0.0000 </r>
       <r>   33.3473    0.0000 </r>
       <r>   34.6742    0.0000 </r>
       <r>   34.6742    0.0000 </r>
       <r>   35.1394    0.0000 </r>
       <r>   35.1394    0.0000 </r>
       <r>   35.7289    0.0000 </r>
       <r>   36.4454    0.0000 </r>
       <r>   37.0810    0.0000 </r>
       <r>   37.0810    0.0000 </r>
       <r>   39.7407    0.0000 </r>
       <r>   39.9543    0.0000 </r>
       <r>   39.9543    0.0000 </r>
       <r>   41.8739    0.0000 </r>
      </set>
      <set comment="kpoint 7">
       <r>   -0.8826    1.0000 </r>
       <r>   -0.8826    1.0000 </r>
       <r>    7.1608    1.0000 </r>
       <r>    7.1608    1.0000 </r>
       <r>    7.1608    1.0000 </r>
       <r>    7.1608    1.0000 </r>
       <r>    8.1769    0.0000 </r>
       <r>    8.1769    0.0000 </r>
       <r>    9.1188    0.0000 </r>
       <r>    9.1188    0.0000 </r>
       <r>   15.4867    0.0000 </r>
       <r>   15.4867    0.0000 </r>
       <r>   15.5316    0.0000 </r>
       <r>   15.5316    0.0000 </r>
       <r>   15.5316    0.0000 </r>
       <r>   15.5316    0.0000 </r>
       <r>   16.2709    0.0000 </r>
       <r>   16.2709    0.0000 </r>
       <r>   19.0316    0.0000 </r>
       <r>   19.0316    0.0000 </r>
       <r>   23.8395    0.0000 </r>
       <r>   23.8395    0.0000 </r>
       <r>   23.8395    0.0000 </r>
       <r>   23.8395    0.0000 </r>
       <r>   24.3906    0.0000 </r>
       <r>   24.3906    0.0000 </r>
       <r>   26.4245    0.0000 </r>
       <r>   26.4245    0.0000 </r>
       <r>   29.4849    0.0000 </r>
       <r>   29.4849    0.0000 </r>
       <r>   29.9771    0.0000 </r>
       <r>   29.9771    0.0000 </r>
       <r>   29.9771    0.0000 </r>
       <r>   29.9771    0.0000 </r>
       <r>   34.1439    0.0000 </r>
       <r>   34.1439    0.0000 </r>
       <r>   34.5009    0.0000 </r>
       <r>   34.5009    0.0000 </r>
       <r>   35.1549    0.0000 </r>
       <r>   35.1549    0.0000 </r>
       <r>   35.7294    0.0000 </r>
       <r>   35.7294    0.0000 </r>
       <r>   35.7294    0.0000 </r>
       <r>   35.7294    0.0000 </r>
       <r>   39.9701    0.0000 </r>
       <r>   39.9701    0.0000 </r>
       <r>   40.8521    0.0000 </r>
       <r>   40.8521    0.0000 </r>
      </set>
      <set comment="kpoint 8">
       <r>   -3.0060    1.0000 </r>
       <r>    4.2731    1.0000 </r>
       <r>    4.2731    1.0000 </r>
       <r>    5.1974    1.0000 </r>
       <r>    6.5287    1.0000 </r>
       <r>    7.4435    1.0000 </r>
       <r>    7.4435    1.0000 </r>
       <r>   11.2376    0.0000 </r>
       <r>   12.1455    0.0000 </r>
       <r>   12.1455    0.0000 </r>
       <r>   13.2245    0.0000 </r>
       <r>   13.2245    0.0000 </r>
       <r>   13.7137    0.0000 </r>
       <r>   14.8248    0.0000 </r>
       <r>   14.9584    0.0000 </r>
       <r>   14.9584    0.0000 </r>
       <r>   17.6705    0.0000 </r>
       <r>   17.6705    0.0000 </r>
       <r>   18.2063    0.0000 </r>
       <r>   18.9283    0.0000 </r>
       <r>   19.4146    0.0000 </r>
       <r>   20.7541    0.0000 </r>
       <r>   22.2092    0.0000 </r>
       <r>   22.8881    0.0000 </r>
       <r>   23.1376    0.0000 </r>
       <r>   25.7358    0.0000 </r>
       <r>   26.3915    0.0000 </r>
       <r>   27.0394    0.0000 </r>
       <r>   30.0614    0.0000 </r>
       <r>   32.6657    0.0000 </r>
       <r>   32.6657    0.0000 </r>
       <r>   32.7998    0.0000 </r>
       <r>   32.8032    0.0000 </r>
       <r>   33.5840    0.0000 </r>
       <r>   33.9477    0.0000 </r>
       <r>   34.0300    0.0000 </r>
       <r>   34.2188    0.0000 </r>
       <r>   34.2188    0.0000 </r>
       <r>   34.2788    0.0000 </r>
       <r>   34.7300    0.0000 </r>
       <r>   34.7300    0.0000 </r>
       <r>   40.0176    0.0000 </r>
       <r>   40.3295    0.0000 </r>
       <r>   40.3295    0.0000 </r>
       <r>   41.2763    0.0000 </r>
       <r>   41.2764    0.0000 </r>
       <r>   41.4186    0.0000 </r>
       <r>   41.5705    0.0000 </r>
      </set>
      <set comment="kpoint 9">
       <r>   -2.8174    1.0000 </r>
       <r>    3.0695    1.0000 </r>
       <r>    4.4506    1.0000 </r>
       <r>    5.3703    1.0000 </r>
       <r>    6.7089    1.0000 </r>
       <r>    7.6196    1.0000 </r>
       <r>    8.9731    0.0000 </r>
       <r>   10.0832    0.0000 </r>
       <r>   10.9290    0.0000 </r>
       <r>   12.3206    0.0000 </r>
       <r>   12.3277    0.0000 </r>
       <r>   13.1113    0.0000 </r>
       <r>   13.3892    0.0000 </r>
       <r>   15.1298    0.0000 </r>
       <r>   15.9676    0.0000 </r>
       <r>   16.5236    0.0000 </r>
       <r>   17.8004    0.0000 </r>
       <r>   17.8384    0.0000 </r>
       <r>   18.4655    0.0000 </r>
       <r>   18.8485    0.0000 </r>
       <r>   19.4497    0.0000 </r>
       <r>   20.3121    0.0000 </r>
       <r>   21.9617    0.0000 </r>
       <r>   23.7459    0.0000 </r>
       <r>   24.1746    0.0000 </r>
       <r>   24.8038    0.0000 </r>
       <r>   27.0514    0.0000 </r>
       <r>   27.0904    0.0000 </r>
       <r>   30.2634    0.0000 </r>
       <r>   31.2558    0.0000 </r>
       <r>   31.8576    0.0000 </r>
       <r>   31.9591    0.0000 </r>
       <r>   32.3641    0.0000 </r>
       <r>   33.0296    0.0000 </r>
       <r>   33.0689    0.0000 </r>
       <r>   34.0164    0.0000 </r>
       <r>   34.0764    0.0000 </r>
       <r>   34.1399    0.0000 </r>
       <r>   34.2501    0.0000 </r>
       <r>   34.7532    0.0000 </r>
       <r>   35.6331    0.0000 </r>
       <r>   39.2040    0.0000 </r>
       <r>   39.2150    0.0000 </r>
       <r>   39.6563    0.0000 </r>
       <r>   41.3440    0.0000 </r>
       <r>   41.4274    0.0000 </r>
       <r>   41.6149    0.0000 </r>
       <r>   41.6206    0.0000 </r>
      </set>
      <set comment="kpoint 10">
       <r>   -2.5035    1.0000 </r>
       <r>    1.9340    1.0000 </r>
       <r>    4.7460    1.0000 </r>
       <r>    5.6587    1.0000 </r>
       <r>    7.0026    1.0000 </r>
       <r>    7.9091    1.0000 </r>
       <r>    9.0045    0.0000 </r>
       <r>    9.8265    0.0000 </r>
       <r>   10.6503    0.0000 </r>
       <r>   11.3543    0.0000 </r>
       <r>   12.1556    0.0000 </r>
       <r>   12.6120    0.0000 </r>
       <r>   13.6642    0.0000 </r>
       <r>   15.4153    0.0000 </r>
       <r>   16.7437    0.0000 </r>
       <r>   17.5047    0.0000 </r>
       <r>   17.5695    0.0000 </r>
       <r>   18.1147    0.0000 </r>
       <r>   18.2053    0.0000 </r>
       <r>   19.4229    0.0000 </r>
       <r>   20.2868    0.0000 </r>
       <r>   20.9273    0.0000 </r>
       <r>   21.4073    0.0000 </r>
       <r>   22.7162    0.0000 </r>
       <r>   25.1324    0.0000 </r>
       <r>   25.5149    0.0000 </r>
       <r>   27.3793    0.0000 </r>
       <r>   28.6983    0.0000 </r>
       <r>   29.3676    0.0000 </r>
       <r>   30.2801    0.0000 </r>
       <r>   30.6634    0.0000 </r>
       <r>   30.8208    0.0000 </r>
       <r>   30.9734    0.0000 </r>
       <r>   31.5736    0.0000 </r>
       <r>   33.3018    0.0000 </r>
       <r>   33.4268    0.0000 </r>
       <r>   33.5360    0.0000 </r>
       <r>   34.3534    0.0000 </r>
       <r>   34.5467    0.0000 </r>
       <r>   34.7790    0.0000 </r>
       <r>   37.3379    0.0000 </r>
       <r>   37.7062    0.0000 </r>
       <r>   38.8039    0.0000 </r>
       <r>   39.2992    0.0000 </r>
       <r>   39.7894    0.0000 </r>
       <r>   41.3810    0.0000 </r>
       <r>   41.6854    0.0000 </r>
       <r>   41.6965    0.0000 </r>
      </set>
      <set comment="kpoint 11">
       <r>   -2.0652    1.0000 </r>
       <r>    0.9018    1.0000 </r>
       <r>    5.1585    1.0000 </r>
       <r>    6.0627    1.0000 </r>
       <r>    7.3659    1.0000 </r>
       <r>    8.0737    0.0000 </r>
       <r>    8.2989    0.0000 </r>
       <r>    8.8404    0.0000 </r>
       <r>   10.4384    0.0000 </r>
       <r>   11.2289    0.0000 </r>
       <r>   12.4356    0.0000 </r>
       <r>   13.0192    0.0000 </r>
       <r>   14.0523    0.0000 </r>
       <r>   15.7821    0.0000 </r>
       <r>   15.8149    0.0000 </r>
       <r>   16.6123    0.0000 </r>
       <r>   18.4939    0.0000 </r>
       <r>   18.5176    0.0000 </r>
       <r>   19.3189    0.0000 </r>
       <r>   19.9982    0.0000 </r>
       <r>   20.4836    0.0000 </r>
       <r>   20.8430    0.0000 </r>
       <r>   21.8444    0.0000 </r>
       <r>   22.5160    0.0000 </r>
       <r>   26.6629    0.0000 </r>
       <r>   26.8245    0.0000 </r>
       <r>   27.3252    0.0000 </r>
       <r>   27.9668    0.0000 </r>
       <r>   28.1179    0.0000 </r>
       <r>   29.1039    0.0000 </r>
       <r>   29.8850    0.0000 </r>
       <r>   30.1075    0.0000 </r>
       <r>   30.4469    0.0000 </r>
       <r>   31.5575    0.0000 </r>
       <r>   32.2819    0.0000 </r>
       <r>   32.6975    0.0000 </r>
       <r>   34.0330    0.0000 </r>
       <r>   34.4795    0.0000 </r>
       <r>   34.7903    0.0000 </r>
       <r>   35.2785    0.0000 </r>
       <r>   36.1569    0.0000 </r>
       <r>   37.8310    0.0000 </r>
       <r>   38.6992    0.0000 </r>
       <r>   38.7690    0.0000 </r>
       <r>   39.1448    0.0000 </r>
       <r>   39.9729    0.0000 </r>
       <r>   40.0212    0.0000 </r>
       <r>   41.6631    0.0000 </r>
      </set>
      <set comment="kpoint 12">
       <r>   -1.5037    1.0000 </r>
       <r>   -0.0178    1.0000 </r>
       <r>    5.6867    1.0000 </r>
       <r>    6.5826    1.0000 </r>
       <r>    7.0567    1.0000 </r>
       <r>    7.9712    0.8893 </r>
       <r>    8.0291    0.0000 </r>
       <r>    8.7072    0.0000 </r>
       <r>    9.7019    0.0000 </r>
       <r>   10.3968    0.0000 </r>
       <r>   13.5413    0.0000 </r>
       <r>   14.2531    0.0000 </r>
       <r>   14.6167    0.0000 </r>
       <r>   14.9251    0.0000 </r>
       <r>   15.8097    0.0000 </r>
       <r>   16.3280    0.0000 </r>
       <r>   17.6858    0.0000 </r>
       <r>   18.4034    0.0000 </r>
       <r>   18.9674    0.0000 </r>
       <r>   20.1435    0.0000 </r>
       <r>   21.1723    0.0000 </r>
       <r>   21.8968    0.0000 </r>
       <r>   23.3870    0.0000 </r>
       <r>   24.1080    0.0000 </r>
       <r>   25.3197    0.0000 </r>
       <r>   25.9744    0.0000 </r>
       <r>   27.5080    0.0000 </r>
       <r>   27.7981    0.0000 </r>
       <r>   28.1566    0.0000 </r>
       <r>   28.2206    0.0000 </r>
       <r>   29.0282    0.0000 </r>
       <r>   29.2955    0.0000 </r>
       <r>   31.0880    0.0000 </r>
       <r>   31.6272    0.0000 </r>
       <r>   32.2736    0.0000 </r>
       <r>   32.4296    0.0000 </r>
       <r>   34.6048    0.0000 </r>
       <r>   34.7099    0.0000 </r>
       <r>   34.7696    0.0000 </r>
       <r>   34.9198    0.0000 </r>
       <r>   35.9393    0.0000 </r>
       <r>   36.2061    0.0000 </r>
       <r>   37.9149    0.0000 </r>
       <r>   38.6002    0.0000 </r>
       <r>   38.7719    0.0000 </r>
       <r>   39.0433    0.0000 </r>
       <r>   39.9792    0.0000 </r>
       <r>   41.6740    0.0000 </r>
      </set>
      <set comment="kpoint 13">
       <r>   -0.8206    1.0000 </r>
       <r>   -0.8206    1.0000 </r>
       <r>    6.3266    1.0000 </r>
       <r>    6.3266    1.0000 </r>
       <r>    7.2187    1.0000 </r>
       <r>    7.2187    1.0000 </r>
       <r>    8.5661    0.0000 </r>
       <r>    8.5661    0.0000 </r>
       <r>    9.7308    0.0000 </r>
       <r>    9.7308    0.0000 </r>
       <r>   14.1772    0.0000 </r>
       <r>   14.1772    0.0000 </r>
       <r>   15.1000    0.0000 </r>
       <r>   15.1000    0.0000 </r>
       <r>   16.3498    0.0000 </r>
       <r>   16.3498    0.0000 </r>
       <r>   16.9528    0.0000 </r>
       <r>   16.9528    0.0000 </r>
       <r>   19.5228    0.0000 </r>
       <r>   19.5228    0.0000 </r>
       <r>   23.0691    0.0000 </r>
       <r>   23.0691    0.0000 </r>
       <r>   23.8932    0.0000 </r>
       <r>   23.8932    0.0000 </r>
       <r>   24.9091    0.0000 </r>
       <r>   24.9091    0.0000 </r>
       <r>   26.7828    0.0000 </r>
       <r>   26.7828    0.0000 </r>
       <r>   28.5427    0.0000 </r>
       <r>   28.5427    0.0000 </r>
       <r>   29.7210    0.0000 </r>
       <r>   29.7210    0.0000 </r>
       <r>   30.3626    0.0000 </r>
       <r>   30.3626    0.0000 </r>
       <r>   33.4643    0.0000 </r>
       <r>   33.4643    0.0000 </r>
       <r>   34.1120    0.0000 </r>
       <r>   34.1120    0.0000 </r>
       <r>   34.7066    0.0000 </r>
       <r>   34.7066    0.0000 </r>
       <r>   36.1943    0.0000 </r>
       <r>   36.1943    0.0000 </r>
       <r>   37.3178    0.0000 </r>
       <r>   37.3178    0.0000 </r>
       <r>   38.9132    0.0000 </r>
       <r>   38.9132    0.0000 </r>
       <r>   41.0635    0.0000 </r>
       <r>   41.0635    0.0000 </r>
      </set>
      <set comment="kpoint 14">
       <r>   -2.6289    1.0000 </r>
       <r>    3.2498    1.0000 </r>
       <r>    3.2498    1.0000 </r>
       <r>    5.5433    1.0000 </r>
       <r>    6.8816    1.0000 </r>
       <r>    8.9501    0.0000 </r>
       <r>    9.1425    0.0000 </r>
       <r>    9.1425    0.0000 </r>
       <r>   11.1034    0.0000 </r>
       <r>   11.1034    0.0000 </r>
       <r>   12.5010    0.0000 </r>
       <r>   12.5010    0.0000 </r>
       <r>   14.0370    0.0000 </r>
       <r>   15.5165    0.0000 </r>
       <r>   16.6270    0.0000 </r>
       <r>   16.6949    0.0000 </r>
       <r>   16.6949    0.0000 </r>
       <r>   17.5817    0.0000 </r>
       <r>   19.0097    0.0000 </r>
       <r>   19.0097    0.0000 </r>
       <r>   20.7389    0.0000 </r>
       <r>   21.1212    0.0000 </r>
       <r>   22.4110    0.0000 </r>
       <r>   23.4041    0.0000 </r>
       <r>   24.4050    0.0000 </r>
       <r>   24.5382    0.0000 </r>
       <r>   25.8487    0.0000 </r>
       <r>   28.4093    0.0000 </r>
       <r>   30.2635    0.0000 </r>
       <r>   30.2635    0.0000 </r>
       <r>   30.2987    0.0000 </r>
       <r>   31.4057    0.0000 </r>
       <r>   32.1898    0.0000 </r>
       <r>   32.8238    0.0000 </r>
       <r>   33.2858    0.0000 </r>
       <r>   33.5540    0.0000 </r>
       <r>   33.5540    0.0000 </r>
       <r>   34.1167    0.0000 </r>
       <r>   34.1167    0.0000 </r>
       <r>   35.4192    0.0000 </r>
       <r>   36.5763    0.0000 </r>
       <r>   37.9790    0.0000 </r>
       <r>   38.4329    0.0000 </r>
       <r>   38.4329    0.0000 </r>
       <r>   40.9213    0.0000 </r>
       <r>   40.9213    0.0000 </r>
       <r>   41.0447    0.0000 </r>
       <r>   41.0447    0.0000 </r>
      </set>
      <set comment="kpoint 15">
       <r>   -2.3155    1.0000 </r>
       <r>    2.1161    1.0000 </r>
       <r>    3.5496    1.0000 </r>
       <r>    5.8318    1.0000 </r>
       <r>    7.1242    1.0000 </r>
       <r>    7.9232    1.0000 </r>
       <r>    9.4145    0.0000 </r>
       <r>   10.0007    0.0000 </r>
       <r>   10.8061    0.0000 </r>
       <r>   11.3940    0.0000 </r>
       <r>   11.5439    0.0000 </r>
       <r>   12.7949    0.0000 </r>
       <r>   13.5328    0.0000 </r>
       <r>   15.5479    0.0000 </r>
       <r>   16.6422    0.0000 </r>
       <r>   16.6437    0.0000 </r>
       <r>   16.9799    0.0000 </r>
       <r>   18.3755    0.0000 </r>
       <r>   19.2750    0.0000 </r>
       <r>   20.4402    0.0000 </r>
       <r>   20.7891    0.0000 </r>
       <r>   22.1011    0.0000 </r>
       <r>   22.2288    0.0000 </r>
       <r>   22.9949    0.0000 </r>
       <r>   24.2995    0.0000 </r>
       <r>   25.1732    0.0000 </r>
       <r>   25.9777    0.0000 </r>
       <r>   28.3238    0.0000 </r>
       <r>   29.3061    0.0000 </r>
       <r>   29.9033    0.0000 </r>
       <r>   30.3781    0.0000 </r>
       <r>   30.4037    0.0000 </r>
       <r>   30.7225    0.0000 </r>
       <r>   32.4505    0.0000 </r>
       <r>   32.7609    0.0000 </r>
       <r>   33.1928    0.0000 </r>
       <r>   33.5129    0.0000 </r>
       <r>   33.7534    0.0000 </r>
       <r>   34.0580    0.0000 </r>
       <r>   36.3055    0.0000 </r>
       <r>   36.8535    0.0000 </r>
       <r>   37.2007    0.0000 </r>
       <r>   37.9026    0.0000 </r>
       <r>   38.1841    0.0000 </r>
       <r>   39.0581    0.0000 </r>
       <r>   40.4511    0.0000 </r>
       <r>   40.6538    0.0000 </r>
       <r>   41.2133    0.0000 </r>
      </set>
      <set comment="kpoint 16">
       <r>   -1.8778    1.0000 </r>
       <r>    1.0853    1.0000 </r>
       <r>    3.9683    1.0000 </r>
       <r>    6.2359    1.0000 </r>
       <r>    6.7545    1.0000 </r>
       <r>    7.7240    1.0000 </r>
       <r>    9.0144    0.0000 </r>
       <r>    9.7235    0.0000 </r>
       <r>   10.7043    0.0000 </r>
       <r>   11.8004    0.0000 </r>
       <r>   12.5223    0.0000 </r>
       <r>   12.6671    0.0000 </r>
       <r>   13.2590    0.0000 </r>
       <r>   14.5741    0.0000 </r>
       <r>   15.7544    0.0000 </r>
       <r>   17.3779    0.0000 </r>
       <r>   18.3173    0.0000 </r>
       <r>   19.6391    0.0000 </r>
       <r>   20.0093    0.0000 </r>
       <r>   20.1664    0.0000 </r>
       <r>   20.6109    0.0000 </r>
       <r>   21.8740    0.0000 </r>
       <r>   21.9832    0.0000 </r>
       <r>   23.8083    0.0000 </r>
       <r>   25.7532    0.0000 </r>
       <r>   25.7938    0.0000 </r>
       <r>   26.2883    0.0000 </r>
       <r>   27.1698    0.0000 </r>
       <r>   28.2528    0.0000 </r>
       <r>   28.4164    0.0000 </r>
       <r>   29.0421    0.0000 </r>
       <r>   30.9524    0.0000 </r>
       <r>   31.3172    0.0000 </r>
       <r>   31.4193    0.0000 </r>
       <r>   32.0341    0.0000 </r>
       <r>   32.9236    0.0000 </r>
       <r>   32.9779    0.0000 </r>
       <r>   33.9419    0.0000 </r>
       <r>   34.5142    0.0000 </r>
       <r>   35.2279    0.0000 </r>
       <r>   36.8863    0.0000 </r>
       <r>   37.1839    0.0000 </r>
       <r>   37.2380    0.0000 </r>
       <r>   37.5808    0.0000 </r>
       <r>   39.6185    0.0000 </r>
       <r>   40.1094    0.0000 </r>
       <r>   40.4258    0.0000 </r>
       <r>   40.8474    0.0000 </r>
      </set>
      <set comment="kpoint 17">
       <r>   -1.3171    1.0000 </r>
       <r>    0.1669    1.0000 </r>
       <r>    4.5044    1.0000 </r>
       <r>    5.9161    1.0000 </r>
       <r>    6.7560    1.0000 </r>
       <r>    8.1450    0.0000 </r>
       <r>    8.2149    0.0000 </r>
       <r>    9.5147    0.0000 </r>
       <r>   10.5774    0.0000 </r>
       <r>   11.8450    0.0000 </r>
       <r>   12.3224    0.0000 </r>
       <r>   13.5773    0.0000 </r>
       <r>   13.7105    0.0000 </r>
       <r>   14.5925    0.0000 </r>
       <r>   14.9452    0.0000 </r>
       <r>   17.8870    0.0000 </r>
       <r>   18.5617    0.0000 </r>
       <r>   19.2189    0.0000 </r>
       <r>   20.0938    0.0000 </r>
       <r>   20.1443    0.0000 </r>
       <r>   21.2218    0.0000 </r>
       <r>   22.0618    0.0000 </r>
       <r>   23.3471    0.0000 </r>
       <r>   24.4864    0.0000 </r>
       <r>   25.3147    0.0000 </r>
       <r>   26.1254    0.0000 </r>
       <r>   26.2854    0.0000 </r>
       <r>   27.4361    0.0000 </r>
       <r>   27.6115    0.0000 </r>
       <r>   27.6184    0.0000 </r>
       <r>   28.7167    0.0000 </r>
       <r>   29.2900    0.0000 </r>
       <r>   30.6527    0.0000 </r>
       <r>   31.8224    0.0000 </r>
       <r>   32.0190    0.0000 </r>
       <r>   32.8392    0.0000 </r>
       <r>   33.2424    0.0000 </r>
       <r>   33.7573    0.0000 </r>
       <r>   33.8587    0.0000 </r>
       <r>   35.5588    0.0000 </r>
       <r>   35.6875    0.0000 </r>
       <r>   36.8900    0.0000 </r>
       <r>   37.3177    0.0000 </r>
       <r>   38.3208    0.0000 </r>
       <r>   39.2453    0.0000 </r>
       <r>   39.9788    0.0000 </r>
       <r>   40.3799    0.0000 </r>
       <r>   40.4531    0.0000 </r>
      </set>
      <set comment="kpoint 18">
       <r>   -0.6348    1.0000 </r>
       <r>   -0.6348    1.0000 </r>
       <r>    5.1556    1.0000 </r>
       <r>    5.1556    1.0000 </r>
       <r>    7.3923    1.0000 </r>
       <r>    7.3923    1.0000 </r>
       <r>    8.8412    0.0000 </r>
       <r>    8.8412    0.0000 </r>
       <r>   11.1257    0.0000 </r>
       <r>   11.1257    0.0000 </r>
       <r>   12.9594    0.0000 </r>
       <r>   12.9594    0.0000 </r>
       <r>   14.2256    0.0000 </r>
       <r>   14.2256    0.0000 </r>
       <r>   16.5271    0.0000 </r>
       <r>   16.5271    0.0000 </r>
       <r>   18.5036    0.0000 </r>
       <r>   18.5036    0.0000 </r>
       <r>   20.6268    0.0000 </r>
       <r>   20.6268    0.0000 </r>
       <r>   22.0470    0.0000 </r>
       <r>   22.0470    0.0000 </r>
       <r>   24.0530    0.0000 </r>
       <r>   24.0530    0.0000 </r>
       <r>   25.3023    0.0000 </r>
       <r>   25.3023    0.0000 </r>
       <r>   26.9004    0.0000 </r>
       <r>   26.9004    0.0000 </r>
       <r>   27.7081    0.0000 </r>
       <r>   27.7081    0.0000 </r>
       <r>   29.0902    0.0000 </r>
       <r>   29.0902    0.0000 </r>
       <r>   30.3320    0.0000 </r>
       <r>   30.3320    0.0000 </r>
       <r>   32.8365    0.0000 </r>
       <r>   32.8365    0.0000 </r>
       <r>   33.5144    0.0000 </r>
       <r>   33.5144    0.0000 </r>
       <r>   34.1632    0.0000 </r>
       <r>   34.1632    0.0000 </r>
       <r>   37.0687    0.0000 </r>
       <r>   37.0687    0.0000 </r>
       <r>   37.3051    0.0000 </r>
       <r>   37.3051    0.0000 </r>
       <r>   39.5404    0.0000 </r>
       <r>   39.5404    0.0000 </r>
       <r>   40.0763    0.0000 </r>
       <r>   40.0763    0.0000 </r>
      </set>
      <set comment="kpoint 19">
       <r>   -2.0027    1.0000 </r>
       <r>    2.4190    1.0000 </r>
       <r>    2.4190    1.0000 </r>
       <r>    6.1204    1.0000 </r>
       <r>    6.6461    1.0000 </r>
       <r>    7.6120    1.0000 </r>
       <r>   10.2909    0.0000 </r>
       <r>   10.2909    0.0000 </r>
       <r>   11.0040    0.0000 </r>
       <r>   11.0040    0.0000 </r>
       <r>   11.9135    0.0000 </r>
       <r>   11.9135    0.0000 </r>
       <r>   14.4571    0.0000 </r>
       <r>   14.5764    0.0000 </r>
       <r>   15.7099    0.0000 </r>
       <r>   16.2177    0.0000 </r>
       <r>   18.6584    0.0000 </r>
       <r>   18.6584    0.0000 </r>
       <r>   20.6919    0.0000 </r>
       <r>   20.6919    0.0000 </r>
       <r>   21.7317    0.0000 </r>
       <r>   22.0708    0.0000 </r>
       <r>   23.3824    0.0000 </r>
       <r>   23.7034    0.0000 </r>
       <r>   23.9721    0.0000 </r>
       <r>   24.1391    0.0000 </r>
       <r>   25.7023    0.0000 </r>
       <r>   27.3401    0.0000 </r>
       <r>   27.3401    0.0000 </r>
       <r>   29.8199    0.0000 </r>
       <r>   30.1935    0.0000 </r>
       <r>   31.0691    0.0000 </r>
       <r>   31.1692    0.0000 </r>
       <r>   31.1936    0.0000 </r>
       <r>   32.9227    0.0000 </r>
       <r>   32.9227    0.0000 </r>
       <r>   32.9873    0.0000 </r>
       <r>   32.9873    0.0000 </r>
       <r>   34.3840    0.0000 </r>
       <r>   35.9650    0.0000 </r>
       <r>   36.2480    0.0000 </r>
       <r>   36.2480    0.0000 </r>
       <r>   37.6426    0.0000 </r>
       <r>   38.5506    0.0000 </r>
       <r>   38.5506    0.0000 </r>
       <r>   39.6801    0.0000 </r>
       <r>   40.2296    0.0000 </r>
       <r>   40.2296    0.0000 </r>
      </set>
      <set comment="kpoint 20">
       <r>   -1.5660    1.0000 </r>
       <r>    1.3906    1.0000 </r>
       <r>    2.8419    1.0000 </r>
       <r>    5.6947    1.0000 </r>
       <r>    6.5248    1.0000 </r>
       <r>    7.9892   -0.0352 </r>
       <r>    9.3043    0.0000 </r>
       <r>   10.6845    0.0000 </r>
       <r>   10.6971    0.0000 </r>
       <r>   11.7005    0.0000 </r>
       <r>   12.0556    0.0000 </r>
       <r>   13.0448    0.0000 </r>
       <r>   13.4769    0.0000 </r>
       <r>   14.1977    0.0000 </r>
       <r>   14.8157    0.0000 </r>
       <r>   17.4101    0.0000 </r>
       <r>   19.0522    0.0000 </r>
       <r>   20.4453    0.0000 </r>
       <r>   20.7386    0.0000 </r>
       <r>   21.0355    0.0000 </r>
       <r>   21.5047    0.0000 </r>
       <r>   22.2052    0.0000 </r>
       <r>   22.9635    0.0000 </r>
       <r>   24.0577    0.0000 </r>
       <r>   24.9710    0.0000 </r>
       <r>   25.2410    0.0000 </r>
       <r>   25.3109    0.0000 </r>
       <r>   26.4430    0.0000 </r>
       <r>   26.7125    0.0000 </r>
       <r>   28.4386    0.0000 </r>
       <r>   28.8260    0.0000 </r>
       <r>   31.1191    0.0000 </r>
       <r>   31.5924    0.0000 </r>
       <r>   31.6260    0.0000 </r>
       <r>   31.7976    0.0000 </r>
       <r>   32.3657    0.0000 </r>
       <r>   32.6645    0.0000 </r>
       <r>   32.6773    0.0000 </r>
       <r>   34.6938    0.0000 </r>
       <r>   35.2852    0.0000 </r>
       <r>   35.4371    0.0000 </r>
       <r>   35.8504    0.0000 </r>
       <r>   36.8631    0.0000 </r>
       <r>   38.3236    0.0000 </r>
       <r>   38.8122    0.0000 </r>
       <r>   39.6492    0.0000 </r>
       <r>   39.7960    0.0000 </r>
       <r>   40.6299    0.0000 </r>
      </set>
      <set comment="kpoint 21">
       <r>   -1.0065    1.0000 </r>
       <r>    0.4742    1.0000 </r>
       <r>    3.3837    1.0000 </r>
       <r>    4.8153    1.0000 </r>
       <r>    7.0451    1.0000 </r>
       <r>    8.4346    0.0000 </r>
       <r>    8.5178    0.0000 </r>
       <r>    9.9034    0.0000 </r>
       <r>   11.2192    0.0000 </r>
       <r>   12.1394    0.0000 </r>
       <r>   12.6096    0.0000 </r>
       <r>   12.6366    0.0000 </r>
       <r>   13.4483    0.0000 </r>
       <r>   13.9981    0.0000 </r>
       <r>   14.8532    0.0000 </r>
       <r>   18.7956    0.0000 </r>
       <r>   19.1704    0.0000 </r>
       <r>   19.5533    0.0000 </r>
       <r>   20.8315    0.0000 </r>
       <r>   21.4601    0.0000 </r>
       <r>   22.3342    0.0000 </r>
       <r>   22.4637    0.0000 </r>
       <r>   22.8930    0.0000 </r>
       <r>   24.1726    0.0000 </r>
       <r>   24.4221    0.0000 </r>
       <r>   25.6474    0.0000 </r>
       <r>   26.3649    0.0000 </r>
       <r>   26.4884    0.0000 </r>
       <r>   26.5748    0.0000 </r>
       <r>   27.8150    0.0000 </r>
       <r>   28.2109    0.0000 </r>
       <r>   30.0335    0.0000 </r>
       <r>   30.3546    0.0000 </r>
       <r>   31.4542    0.0000 </r>
       <r>   31.4959    0.0000 </r>
       <r>   32.2041    0.0000 </r>
       <r>   32.2866    0.0000 </r>
       <r>   33.3811    0.0000 </r>
       <r>   33.6302    0.0000 </r>
       <r>   35.1027    0.0000 </r>
       <r>   35.4906    0.0000 </r>
       <r>   35.5166    0.0000 </r>
       <r>   36.9373    0.0000 </r>
       <r>   38.3725    0.0000 </r>
       <r>   39.1470    0.0000 </r>
       <r>   39.5208    0.0000 </r>
       <r>   40.0533    0.0000 </r>
       <r>   40.2791    0.0000 </r>
      </set>
      <set comment="kpoint 22">
       <r>   -0.3257    1.0000 </r>
       <r>   -0.3257    1.0000 </r>
       <r>    4.0425    1.0000 </r>
       <r>    4.0425    1.0000 </r>
       <r>    7.6816    1.0000 </r>
       <r>    7.6816    1.0000 </r>
       <r>    9.1618    0.0000 </r>
       <r>    9.1618    0.0000 </r>
       <r>   11.8568    0.0000 </r>
       <r>   11.8568    0.0000 </r>
       <r>   12.7423    0.0000 </r>
       <r>   12.7423    0.0000 </r>
       <r>   13.2712    0.0000 </r>
       <r>   13.2712    0.0000 </r>
       <r>   16.7954    0.0000 </r>
       <r>   16.7954    0.0000 </r>
       <r>   20.1538    0.0000 </r>
       <r>   20.1538    0.0000 </r>
       <r>   21.0715    0.0000 </r>
       <r>   21.0715    0.0000 </r>
       <r>   21.9471    0.0000 </r>
       <r>   21.9471    0.0000 </r>
       <r>   24.3140    0.0000 </r>
       <r>   24.3140    0.0000 </r>
       <r>   24.9669    0.0000 </r>
       <r>   24.9669    0.0000 </r>
       <r>   25.5740    0.0000 </r>
       <r>   25.5740    0.0000 </r>
       <r>   28.3109    0.0000 </r>
       <r>   28.3109    0.0000 </r>
       <r>   28.8067    0.0000 </r>
       <r>   28.8067    0.0000 </r>
       <r>   29.8701    0.0000 </r>
       <r>   29.8701    0.0000 </r>
       <r>   31.8621    0.0000 </r>
       <r>   31.8621    0.0000 </r>
       <r>   32.8757    0.0000 </r>
       <r>   32.8757    0.0000 </r>
       <r>   34.3711    0.0000 </r>
       <r>   34.3711    0.0000 </r>
       <r>   35.2335    0.0000 </r>
       <r>   35.2335    0.0000 </r>
       <r>   38.6610    0.0000 </r>
       <r>   38.6610    0.0000 </r>
       <r>   38.7654    0.0000 </r>
       <r>   38.7654    0.0000 </r>
       <r>   39.7680    0.0000 </r>
       <r>   39.7680    0.0000 </r>
      </set>
      <set comment="kpoint 23">
       <r>   -1.1306    1.0000 </r>
       <r>    1.8170    1.0000 </r>
       <r>    1.8170    1.0000 </r>
       <r>    4.7000    1.0000 </r>
       <r>    6.9294    1.0000 </r>
       <r>    8.4032    0.0000 </r>
       <r>    9.7103    0.0000 </r>
       <r>    9.7103    0.0000 </r>
       <r>   11.1779    0.0000 </r>
       <r>   11.1779    0.0000 </r>
       <r>   12.4930    0.0000 </r>
       <r>   13.3875    0.0000 </r>
       <r>   13.3875    0.0000 </r>
       <r>   13.9135    0.0000 </r>
       <r>   15.3324    0.0000 </r>
       <r>   17.0980    0.0000 </r>
       <r>   20.4766    0.0000 </r>
       <r>   20.8317    0.0000 </r>
       <r>   20.8317    0.0000 </r>
       <r>   22.4872    0.0000 </r>
       <r>   22.4872    0.0000 </r>
       <r>   22.4978    0.0000 </r>
       <r>   22.5834    0.0000 </r>
       <r>   23.8190    0.0000 </r>
       <r>   24.4470    0.0000 </r>
       <r>   24.4470    0.0000 </r>
       <r>   24.7125    0.0000 </r>
       <r>   26.7096    0.0000 </r>
       <r>   26.8645    0.0000 </r>
       <r>   28.2811    0.0000 </r>
       <r>   28.2839    0.0000 </r>
       <r>   29.5580    0.0000 </r>
       <r>   31.1037    0.0000 </r>
       <r>   31.1037    0.0000 </r>
       <r>   31.9371    0.0000 </r>
       <r>   31.9371    0.0000 </r>
       <r>   32.0544    0.0000 </r>
       <r>   33.1668    0.0000 </r>
       <r>   34.1754    0.0000 </r>
       <r>   34.3997    0.0000 </r>
       <r>   34.3997    0.0000 </r>
       <r>   36.8144    0.0000 </r>
       <r>   36.8466    0.0000 </r>
       <r>   36.8466    0.0000 </r>
       <r>   38.8852    0.0000 </r>
       <r>   39.5301    0.0000 </r>
       <r>   39.5301    0.0000 </r>
       <r>   40.0997    0.0000 </r>
      </set>
      <set comment="kpoint 24">
       <r>   -0.5728    1.0000 </r>
       <r>    0.9034    1.0000 </r>
       <r>    2.3632    1.0000 </r>
       <r>    3.8080    1.0000 </r>
       <r>    7.4501    1.0000 </r>
       <r>    8.8403    0.0000 </r>
       <r>    8.9383    0.0000 </r>
       <r>   10.2323    0.0000 </r>
       <r>   10.3377    0.0000 </r>
       <r>   11.6239    0.0000 </r>
       <r>   11.7174    0.0000 </r>
       <r>   13.0871    0.0000 </r>
       <r>   13.8755    0.0000 </r>
       <r>   15.0874    0.0000 </r>
       <r>   15.2299    0.0000 </r>
       <r>   18.3649    0.0000 </r>
       <r>   19.0429    0.0000 </r>
       <r>   21.3181    0.0000 </r>
       <r>   22.1300    0.0000 </r>
       <r>   22.3055    0.0000 </r>
       <r>   22.4545    0.0000 </r>
       <r>   22.7073    0.0000 </r>
       <r>   22.7393    0.0000 </r>
       <r>   23.7879    0.0000 </r>
       <r>   23.8646    0.0000 </r>
       <r>   24.3206    0.0000 </r>
       <r>   25.8273    0.0000 </r>
       <r>   26.6429    0.0000 </r>
       <r>   27.1486    0.0000 </r>
       <r>   27.8754    0.0000 </r>
       <r>   28.2963    0.0000 </r>
       <r>   29.3447    0.0000 </r>
       <r>   29.5471    0.0000 </r>
       <r>   30.5379    0.0000 </r>
       <r>   30.9086    0.0000 </r>
       <r>   30.9103    0.0000 </r>
       <r>   32.5859    0.0000 </r>
       <r>   33.6432    0.0000 </r>
       <r>   33.7098    0.0000 </r>
       <r>   33.9150    0.0000 </r>
       <r>   34.0804    0.0000 </r>
       <r>   35.6722    0.0000 </r>
       <r>   37.0811    0.0000 </r>
       <r>   38.1239    0.0000 </r>
       <r>   38.5245    0.0000 </r>
       <r>   39.0001    0.0000 </r>
       <r>   39.4583    0.0000 </r>
       <r>   40.1650    0.0000 </r>
      </set>
      <set comment="kpoint 25">
       <r>    0.1059    1.0000 </r>
       <r>    0.1059    1.0000 </r>
       <r>    3.0277    1.0000 </r>
       <r>    3.0277    1.0000 </r>
       <r>    8.0869    0.0000 </r>
       <r>    8.0869    0.0000 </r>
       <r>    9.5860    0.0000 </r>
       <r>    9.5860    0.0000 </r>
       <r>   10.8702    0.0000 </r>
       <r>   10.8702    0.0000 </r>
       <r>   12.3529    0.0000 </r>
       <r>   12.3529    0.0000 </r>
       <r>   14.4625    0.0000 </r>
       <r>   14.4625    0.0000 </r>
       <r>   17.1462    0.0000 </r>
       <r>   17.1462    0.0000 </r>
       <r>   20.2005    0.0000 </r>
       <r>   20.2005    0.0000 </r>
       <r>   21.8846    0.0000 </r>
       <r>   21.8846    0.0000 </r>
       <r>   22.6328    0.0000 </r>
       <r>   22.6328    0.0000 </r>
       <r>   23.6485    0.0000 </r>
       <r>   23.6485    0.0000 </r>
       <r>   24.6611    0.0000 </r>
       <r>   24.6611    0.0000 </r>
       <r>   25.8049    0.0000 </r>
       <r>   25.8049    0.0000 </r>
       <r>   27.5339    0.0000 </r>
       <r>   27.5339    0.0000 </r>
       <r>   29.3605    0.0000 </r>
       <r>   29.3605    0.0000 </r>
       <r>   29.6632    0.0000 </r>
       <r>   29.6632    0.0000 </r>
       <r>   29.9950    0.0000 </r>
       <r>   29.9950    0.0000 </r>
       <r>   33.1256    0.0000 </r>
       <r>   33.1256    0.0000 </r>
       <r>   33.7678    0.0000 </r>
       <r>   33.7678    0.0000 </r>
       <r>   34.7220    0.0000 </r>
       <r>   34.7220    0.0000 </r>
       <r>   37.5172    0.0000 </r>
       <r>   37.5172    0.0000 </r>
       <r>   39.0307    0.0000 </r>
       <r>   39.0307    0.0000 </r>
       <r>   40.4476    0.0000 </r>
       <r>   40.4477    0.0000 </r>
      </set>
      <set comment="kpoint 26">
       <r>   -0.0172    1.0000 </r>
       <r>    1.4533    1.0000 </r>
       <r>    1.4533    1.0000 </r>
       <r>    2.9084    1.0000 </r>
       <r>    7.9711    0.8972 </r>
       <r>    9.3620    0.0000 </r>
       <r>    9.3620    0.0000 </r>
       <r>    9.4739    0.0000 </r>
       <r>   10.7539    0.0000 </r>
       <r>   10.8719    0.0000 </r>
       <r>   10.8719    0.0000 </r>
       <r>   12.2524    0.0000 </r>
       <r>   15.6980    0.0000 </r>
       <r>   15.6980    0.0000 </r>
       <r>   16.3054    0.0000 </r>
       <r>   18.1811    0.0000 </r>
       <r>   18.8919    0.0000 </r>
       <r>   20.9107    0.0000 </r>
       <r>   21.4008    0.0000 </r>
       <r>   21.4008    0.0000 </r>
       <r>   23.1637    0.0000 </r>
       <r>   23.1637    0.0000 </r>
       <r>   23.6728    0.0000 </r>
       <r>   24.5817    0.0000 </r>
       <r>   24.5817    0.0000 </r>
       <r>   24.6333    0.0000 </r>
       <r>   25.6445    0.0000 </r>
       <r>   26.5359    0.0000 </r>
       <r>   26.8863    0.0000 </r>
       <r>   28.0788    0.0000 </r>
       <r>   28.0818    0.0000 </r>
       <r>   28.6777    0.0000 </r>
       <r>   28.6777    0.0000 </r>
       <r>   29.0533    0.0000 </r>
       <r>   30.2955    0.0000 </r>
       <r>   30.2955    0.0000 </r>
       <r>   32.9975    0.0000 </r>
       <r>   33.0688    0.0000 </r>
       <r>   33.5276    0.0000 </r>
       <r>   33.5276    0.0000 </r>
       <r>   34.5080    0.0000 </r>
       <r>   36.0475    0.0000 </r>
       <r>   36.0475    0.0000 </r>
       <r>   37.2766    0.0000 </r>
       <r>   38.8737    0.0000 </r>
       <r>   39.0974    0.0000 </r>
       <r>   39.0974    0.0000 </r>
       <r>   40.3331    0.0000 </r>
      </set>
      <set comment="kpoint 27">
       <r>    0.6589    1.0000 </r>
       <r>    0.6589    1.0000 </r>
       <r>    2.1224    1.0000 </r>
       <r>    2.1224    1.0000 </r>
       <r>    8.6083    0.0000 </r>
       <r>    8.6083    0.0000 </r>
       <r>    9.9999    0.0000 </r>
       <r>    9.9999    0.0000 </r>
       <r>   10.1205    0.0000 </r>
       <r>   10.1205    0.0000 </r>
       <r>   11.5112    0.0000 </r>
       <r>   11.5112    0.0000 </r>
       <r>   16.1960    0.0000 </r>
       <r>   16.1960    0.0000 </r>
       <r>   17.5178    0.0000 </r>
       <r>   17.5178    0.0000 </r>
       <r>   19.5160    0.0000 </r>
       <r>   19.5160    0.0000 </r>
       <r>   20.8476    0.0000 </r>
       <r>   20.8476    0.0000 </r>
       <r>   23.6335    0.0000 </r>
       <r>   23.6335    0.0000 </r>
       <r>   24.7838    0.0000 </r>
       <r>   24.7838    0.0000 </r>
       <r>   25.0338    0.0000 </r>
       <r>   25.0338    0.0000 </r>
       <r>   25.9213    0.0000 </r>
       <r>   25.9213    0.0000 </r>
       <r>   26.8790    0.0000 </r>
       <r>   26.8790    0.0000 </r>
       <r>   28.1232    0.0000 </r>
       <r>   28.1232    0.0000 </r>
       <r>   29.0460    0.0000 </r>
       <r>   29.0460    0.0000 </r>
       <r>   29.6991    0.0000 </r>
       <r>   29.6991    0.0000 </r>
       <r>   33.2021    0.0000 </r>
       <r>   33.2021    0.0000 </r>
       <r>   33.3277    0.0000 </r>
       <r>   33.3277    0.0000 </r>
       <r>   35.2060    0.0000 </r>
       <r>   35.2060    0.0000 </r>
       <r>   36.5859    0.0000 </r>
       <r>   36.5859    0.0000 </r>
       <r>   38.6845    0.0000 </r>
       <r>   38.6845    0.0000 </r>
       <r>   39.9220    0.0000 </r>
       <r>   39.9220    0.0000 </r>
      </set>
      <set comment="kpoint 28">
       <r>    1.3318    1.0000 </r>
       <r>    1.3318    1.0000 </r>
       <r>    1.3318    1.0000 </r>
       <r>    1.3318    1.0000 </r>
       <r>    9.2459    0.0000 </r>
       <r>    9.2459    0.0000 </r>
       <r>    9.2459    0.0000 </r>
       <r>    9.2459    0.0000 </r>
       <r>   10.7640    0.0000 </r>
       <r>   10.7640    0.0000 </r>
       <r>   10.7640    0.0000 </r>
       <r>   10.7640    0.0000 </r>
       <r>   17.4938    0.0000 </r>
       <r>   17.4938    0.0000 </r>
       <r>   17.4938    0.0000 </r>
       <r>   17.4938    0.0000 </r>
       <r>   19.4592    0.0000 </r>
       <r>   19.4592    0.0000 </r>
       <r>   19.4592    0.0000 </r>
       <r>   19.4592    0.0000 </r>
       <r>   24.9936    0.0000 </r>
       <r>   24.9936    0.0000 </r>
       <r>   24.9936    0.0000 </r>
       <r>   24.9936    0.0000 </r>
       <r>   25.6633    0.0000 </r>
       <r>   25.6633    0.0000 </r>
       <r>   25.6633    0.0000 </r>
       <r>   25.6633    0.0000 </r>
       <r>   26.7688    0.0000 </r>
       <r>   26.7688    0.0000 </r>
       <r>   26.7688    0.0000 </r>
       <r>   26.7688    0.0000 </r>
       <r>   29.1785    0.0000 </r>
       <r>   29.1785    0.0000 </r>
       <r>   29.1785    0.0000 </r>
       <r>   29.1785    0.0000 </r>
       <r>   33.3173    0.0000 </r>
       <r>   33.3173    0.0000 </r>
       <r>   33.3173    0.0000 </r>
       <r>   33.3173    0.0000 </r>
       <r>   35.8236    0.0000 </r>
       <r>   35.8236    0.0000 </r>
       <r>   35.8236    0.0000 </r>
       <r>   35.8236    0.0000 </r>
       <r>   38.9522    0.0000 </r>
       <r>   38.9522    0.0000 </r>
       <r>   38.9522    0.0000 </r>
       <r>   38.9522    0.0000 </r>
      </set>
      <set comment="kpoint 29">
       <r>   -2.9431    1.0000 </r>
       <r>    4.3323    1.0000 </r>
       <r>    4.3323    1.0000 </r>
       <r>    4.3323    1.0000 </r>
       <r>    7.5021    1.0000 </r>
       <r>    7.5021    1.0000 </r>
       <r>    7.5021    1.0000 </r>
       <r>   11.2963    0.0000 </r>
       <r>   11.2963    0.0000 </r>
       <r>   11.2963    0.0000 </r>
       <r>   13.7671    0.0000 </r>
       <r>   13.7671    0.0000 </r>
       <r>   13.7671    0.0000 </r>
       <r>   14.8843    0.0000 </r>
       <r>   14.8843    0.0000 </r>
       <r>   14.8843    0.0000 </r>
       <r>   18.0160    0.0000 </r>
       <r>   18.2616    0.0000 </r>
       <r>   18.2616    0.0000 </r>
       <r>   18.2616    0.0000 </r>
       <r>   20.0635    0.0000 </r>
       <r>   20.0635    0.0000 </r>
       <r>   22.7893    0.0000 </r>
       <r>   22.9858    0.0000 </r>
       <r>   22.9858    0.0000 </r>
       <r>   26.3039    0.0000 </r>
       <r>   26.4605    0.0000 </r>
       <r>   26.4605    0.0000 </r>
       <r>   29.6517    0.0000 </r>
       <r>   32.3222    0.0000 </r>
       <r>   32.3222    0.0000 </r>
       <r>   32.3222    0.0000 </r>
       <r>   33.5994    0.0000 </r>
       <r>   34.0141    0.0000 </r>
       <r>   34.0141    0.0000 </r>
       <r>   34.0582    0.0000 </r>
       <r>   34.0582    0.0000 </r>
       <r>   34.0582    0.0000 </r>
       <r>   34.2706    0.0000 </r>
       <r>   34.2706    0.0000 </r>
       <r>   34.2706    0.0000 </r>
       <r>   39.7633    0.0000 </r>
       <r>   39.7633    0.0000 </r>
       <r>   39.7633    0.0000 </r>
       <r>   41.2370    0.0000 </r>
       <r>   41.2370    0.0000 </r>
       <r>   41.2370    0.0000 </r>
       <r>   41.7879    0.0000 </r>
      </set>
      <set comment="kpoint 30">
       <r>   -2.7545    1.0000 </r>
       <r>    3.1296    1.0000 </r>
       <r>    4.5097    1.0000 </r>
       <r>    4.5097    1.0000 </r>
       <r>    7.6758    1.0000 </r>
       <r>    7.6758    1.0000 </r>
       <r>    9.0288    0.0000 </r>
       <r>   10.1437    0.0000 </r>
       <r>   10.1437    0.0000 </r>
       <r>   11.4727    0.0000 </r>
       <r>   13.1673    0.0000 </r>
       <r>   13.1673    0.0000 </r>
       <r>   13.9276    0.0000 </r>
       <r>   15.0627    0.0000 </r>
       <r>   16.0255    0.0000 </r>
       <r>   16.0255    0.0000 </r>
       <r>   16.9056    0.0000 </r>
       <r>   18.4265    0.0000 </r>
       <r>   19.0279    0.0000 </r>
       <r>   19.5033    0.0000 </r>
       <r>   19.5033    0.0000 </r>
       <r>   20.0258    0.0000 </r>
       <r>   22.5423    0.0000 </r>
       <r>   23.3272    0.0000 </r>
       <r>   24.2645    0.0000 </r>
       <r>   24.8431    0.0000 </r>
       <r>   26.6788    0.0000 </r>
       <r>   27.5652    0.0000 </r>
       <r>   29.6122    0.0000 </r>
       <r>   31.1555    0.0000 </r>
       <r>   31.1555    0.0000 </r>
       <r>   31.4563    0.0000 </r>
       <r>   32.9625    0.0000 </r>
[...]
       <r>    35.1707     2.5167    80.0769 </r>
       <r>    35.1959     2.4324    80.1382 </r>
       <r>    35.2211     2.0545    80.1899 </r>
       <r>    35.2463     2.2103    80.2456 </r>
       <r>    35.2714    -0.0467    80.2444 </r>
       <r>    35.2966     2.2531    80.3011 </r>
       <r>    35.3218    -0.0532    80.2998 </r>
       <r>    35.3470    -0.0313    80.2990 </r>
       <r>    35.3722     1.1658    80.3283 </r>
       <r>    35.3973    -0.0372    80.3274 </r>
       <r>    35.4225     0.6571    80.3439 </r>
       <r>    35.4477     1.3125    80.3770 </r>
       <r>    35.4729    -0.0503    80.3757 </r>
       <r>    35.4981     1.0782    80.4029 </r>
       <r>    35.5232     1.0846    80.4302 </r>
       <r>    35.5484     0.0291    80.4309 </r>
       <r>    35.5736     1.1133    80.4590 </r>
       <r>    35.5988     2.6037    80.5245 </r>
       <r>    35.6240     0.2285    80.5303 </r>
       <r>    35.6491     4.2694    80.6378 </r>
       <r>    35.6743     1.8339    80.6840 </r>
       <r>    35.6995     2.4506    80.7457 </r>
       <r>    35.7247     3.2620    80.8278 </r>
       <r>    35.7499     0.8770    80.8499 </r>
       <r>    35.7750     1.1736    80.8794 </r>
       <r>    35.8002     0.4353    80.8904 </r>
       <r>    35.8254     2.1139    80.9436 </r>
       <r>    35.8506     0.7382    80.9622 </r>
       <r>    35.8758     0.5364    80.9757 </r>
       <r>    35.9009     0.0418    80.9768 </r>
       <r>    35.9261     5.1670    81.1069 </r>
       <r>    35.9513     1.4303    81.1429 </r>
       <r>    35.9765     0.5494    81.1567 </r>
       <r>    36.0017    -0.0334    81.1559 </r>
       <r>    36.0268     1.8923    81.2035 </r>
       <r>    36.0520     1.6289    81.2446 </r>
       <r>    36.0772     0.1705    81.2488 </r>
       <r>    36.1024    -0.0001    81.2488 </r>
       <r>    36.1276    -0.0001    81.2488 </r>
       <r>    36.1527     0.1751    81.2532 </r>
       <r>    36.1779     2.9538    81.3276 </r>
       <r>    36.2031     1.4995    81.3654 </r>
       <r>    36.2283     3.0791    81.4429 </r>
       <r>    36.2535     4.9668    81.5680 </r>
       <r>    36.2786     0.5638    81.5822 </r>
       <r>    36.3038     0.4014    81.5923 </r>
       <r>    36.3290     0.6831    81.6095 </r>
       <r>    36.3542     2.2711    81.6667 </r>
       <r>    36.3794     0.6005    81.6818 </r>
       <r>    36.4045     0.4301    81.6926 </r>
       <r>    36.4297     2.4761    81.7550 </r>
       <r>    36.4549     2.1832    81.8099 </r>
       <r>    36.4801     2.2802    81.8674 </r>
       <r>    36.5053     2.1470    81.9214 </r>
       <r>    36.5305     3.9256    82.0203 </r>
       <r>    36.5556     2.0313    82.0714 </r>
       <r>    36.5808     4.6105    82.1875 </r>
       <r>    36.6060     1.0655    82.2143 </r>
       <r>    36.6312     0.1201    82.2174 </r>
       <r>    36.6564     1.2847    82.2497 </r>
       <r>    36.6815     3.9894    82.3502 </r>
       <r>    36.7067     1.2260    82.3810 </r>
       <r>    36.7319     0.0483    82.3823 </r>
       <r>    36.7571     1.0582    82.4089 </r>
       <r>    36.7823     0.2784    82.4159 </r>
       <r>    36.8074     4.3001    82.5242 </r>
       <r>    36.8326     3.4246    82.6104 </r>
       <r>    36.8578     4.3061    82.7188 </r>
       <r>    36.8830     1.4123    82.7544 </r>
       <r>    36.9082     1.8486    82.8010 </r>
       <r>    36.9333     2.7747    82.8708 </r>
       <r>    36.9585     3.0254    82.9470 </r>
       <r>    36.9837     1.8988    82.9948 </r>
       <r>    37.0089     3.0345    83.0712 </r>
       <r>    37.0341     0.5663    83.0855 </r>
       <r>    37.0592     2.2874    83.1431 </r>
       <r>    37.0844     2.3733    83.2028 </r>
       <r>    37.1096     0.5930    83.2178 </r>
       <r>    37.1348     2.6415    83.2843 </r>
       <r>    37.1600     0.7054    83.3021 </r>
       <r>    37.1851     0.6263    83.3178 </r>
       <r>    37.2103     5.6641    83.4604 </r>
       <r>    37.2355     5.8509    83.6078 </r>
       <r>    37.2607     1.0879    83.6352 </r>
       <r>    37.2859     1.0876    83.6626 </r>
       <r>    37.3110     2.8128    83.7334 </r>
       <r>    37.3362     2.6028    83.7989 </r>
       <r>    37.3614     1.2856    83.8313 </r>
       <r>    37.3866     0.4798    83.8434 </r>
       <r>    37.4118     2.2680    83.9005 </r>
       <r>    37.4369    -0.0377    83.8995 </r>
       <r>    37.4621     2.7725    83.9693 </r>
       <r>    37.4873     0.5283    83.9826 </r>
       <r>    37.5125     0.0585    83.9841 </r>
       <r>    37.5377     5.5410    84.1236 </r>
       <r>    37.5628     2.1095    84.1768 </r>
       <r>    37.5880     2.7147    84.2451 </r>
       <r>    37.6132     0.6080    84.2604 </r>
       <r>    37.6384     0.0929    84.2628 </r>
       <r>    37.6636     1.2389    84.2940 </r>
       <r>    37.6887     2.5837    84.3590 </r>
       <r>    37.7139     5.1136    84.4878 </r>
       <r>    37.7391     2.1820    84.5427 </r>
       <r>    37.7643     3.7407    84.6369 </r>
       <r>    37.7895     0.1911    84.6417 </r>
       <r>    37.8146     1.9554    84.6910 </r>
       <r>    37.8398     1.4415    84.7273 </r>
       <r>    37.8650     0.7576    84.7463 </r>
       <r>    37.8902     0.8908    84.7688 </r>
       <r>    37.9154     6.1388    84.9233 </r>
       <r>    37.9405     0.6292    84.9392 </r>
       <r>    37.9657     2.3268    84.9978 </r>
       <r>    37.9909     0.5116    85.0107 </r>
       <r>    38.0161     1.6926    85.0533 </r>
       <r>    38.0413     0.4419    85.0644 </r>
       <r>    38.0664     2.2593    85.1213 </r>
       <r>    38.0916     3.9461    85.2207 </r>
       <r>    38.1168     3.9263    85.3195 </r>
       <r>    38.1420     3.9202    85.4182 </r>
       <r>    38.1672     4.3865    85.5287 </r>
       <r>    38.1924     4.5920    85.6443 </r>
       <r>    38.2175     0.1595    85.6483 </r>
       <r>    38.2427     1.7552    85.6925 </r>
       <r>    38.2679     2.8303    85.7638 </r>
       <r>    38.2931     2.2984    85.8217 </r>
       <r>    38.3183     1.6931    85.8643 </r>
       <r>    38.3434     1.7815    85.9092 </r>
       <r>    38.3686     3.9778    86.0093 </r>
       <r>    38.3938     5.1910    86.1400 </r>
       <r>    38.4190    -0.1270    86.1368 </r>
       <r>    38.4442     1.1547    86.1659 </r>
       <r>    38.4693     1.9245    86.2144 </r>
       <r>    38.4945     2.5291    86.2781 </r>
       <r>    38.5197     0.2849    86.2852 </r>
       <r>    38.5449     4.7537    86.4049 </r>
       <r>    38.5701     1.8187    86.4507 </r>
       <r>    38.5952     2.3096    86.5089 </r>
       <r>    38.6204     5.6843    86.6520 </r>
       <r>    38.6456     0.9791    86.6767 </r>
       <r>    38.6708     2.0158    86.7274 </r>
       <r>    38.6960     2.8253    86.7986 </r>
       <r>    38.7211     6.5069    86.9624 </r>
       <r>    38.7463     2.8493    87.0342 </r>
       <r>    38.7715     5.1899    87.1648 </r>
       <r>    38.7967     1.9693    87.2144 </r>
       <r>    38.8219     2.1776    87.2693 </r>
       <r>    38.8470     2.2200    87.3252 </r>
       <r>    38.8722     1.7330    87.3688 </r>
       <r>    38.8974     5.8397    87.5159 </r>
       <r>    38.9226     3.0168    87.5918 </r>
       <r>    38.9478     1.9001    87.6397 </r>
       <r>    38.9729     2.6561    87.7065 </r>
       <r>    38.9981     3.5899    87.7969 </r>
       <r>    39.0233     1.2409    87.8282 </r>
       <r>    39.0485     2.0430    87.8796 </r>
       <r>    39.0737     1.2023    87.9099 </r>
       <r>    39.0988     3.4286    87.9962 </r>
       <r>    39.1240     2.2907    88.0539 </r>
       <r>    39.1492     6.7353    88.2235 </r>
       <r>    39.1744     2.0132    88.2742 </r>
       <r>    39.1996     4.5586    88.3890 </r>
       <r>    39.2247     3.1711    88.4688 </r>
       <r>    39.2499     1.9568    88.5181 </r>
       <r>    39.2751     0.1524    88.5219 </r>
       <r>    39.3003     0.6537    88.5384 </r>
       <r>    39.3255     0.4564    88.5499 </r>
       <r>    39.3506     4.0117    88.6509 </r>
       <r>    39.3758     1.5254    88.6893 </r>
       <r>    39.4010     2.2812    88.7468 </r>
       <r>    39.4262     2.0314    88.7979 </r>
       <r>    39.4514     1.1437    88.8267 </r>
       <r>    39.4765     1.1509    88.8557 </r>
       <r>    39.5017    -0.0742    88.8538 </r>
       <r>    39.5269     3.4074    88.9396 </r>
       <r>    39.5521     6.6265    89.1065 </r>
       <r>    39.5773    -0.2192    89.1010 </r>
       <r>    39.6024     5.9063    89.2497 </r>
       <r>    39.6276     4.5748    89.3649 </r>
       <r>    39.6528     3.5721    89.4548 </r>
       <r>    39.6780     3.2101    89.5357 </r>
       <r>    39.7032     3.5178    89.6242 </r>
       <r>    39.7283     2.3966    89.6846 </r>
       <r>    39.7535     3.2039    89.7653 </r>
       <r>    39.7787     5.6479    89.9075 </r>
       <r>    39.8039     3.6624    89.9997 </r>
       <r>    39.8291     7.0531    90.1773 </r>
       <r>    39.8542     1.9485    90.2264 </r>
       <r>    39.8794     0.2534    90.2327 </r>
       <r>    39.9046     3.2909    90.3156 </r>
       <r>    39.9298     4.2081    90.4216 </r>
       <r>    39.9550    10.1256    90.6765 </r>
       <r>    39.9802     4.2896    90.7845 </r>
       <r>    40.0053     6.2209    90.9412 </r>
       <r>    40.0305     5.9611    91.0913 </r>
       <r>    40.0557     1.9188    91.1396 </r>
       <r>    40.0809     3.5816    91.2298 </r>
       <r>    40.1061     0.8655    91.2516 </r>
       <r>    40.1312     2.0292    91.3027 </r>
       <r>    40.1564     4.6286    91.4192 </r>
       <r>    40.1816     4.9050    91.5427 </r>
       <r>    40.2068     3.1689    91.6225 </r>
       <r>    40.2320     1.4091    91.6580 </r>
       <r>    40.2571     9.5006    91.8972 </r>
       <r>    40.2823     4.3471    92.0067 </r>
       <r>    40.3075     6.3967    92.1678 </r>
       <r>    40.3327     3.3144    92.2512 </r>
       <r>    40.3579     1.0484    92.2776 </r>
       <r>    40.3830     7.3325    92.4623 </r>
       <r>    40.4082     6.0870    92.6155 </r>
       <r>    40.4334     8.5188    92.8300 </r>
       <r>    40.4586     4.8689    92.9526 </r>
       <r>    40.4838     1.1915    92.9826 </r>
       <r>    40.5089     4.7824    93.1031 </r>
       <r>    40.5341     1.8541    93.1498 </r>
       <r>    40.5593    -0.0269    93.1491 </r>
       <r>    40.5845     1.0215    93.1748 </r>
       <r>    40.6097     5.8281    93.3216 </r>
       <r>    40.6348     0.8542    93.3431 </r>
       <r>    40.6600     2.1100    93.3962 </r>
       <r>    40.6852     1.1206    93.4244 </r>
       <r>    40.7104     2.4676    93.4866 </r>
       <r>    40.7356     0.8613    93.5082 </r>
       <r>    40.7607     3.2023    93.5889 </r>
       <r>    40.7859     2.9177    93.6623 </r>
       <r>    40.8111     2.4592    93.7243 </r>
       <r>    40.8363     0.7567    93.7433 </r>
       <r>    40.8615     3.0241    93.8195 </r>
       <r>    40.8866     3.8618    93.9167 </r>
       <r>    40.9118     1.7520    93.9608 </r>
       <r>    40.9370     2.1219    94.0143 </r>
       <r>    40.9622     1.4607    94.0510 </r>
       <r>    40.9874     1.6285    94.0920 </r>
       <r>    41.0125     2.5667    94.1567 </r>
       <r>    41.0377     2.4773    94.2191 </r>
       <r>    41.0629     5.7303    94.3633 </r>
       <r>    41.0881     3.0494    94.4401 </r>
       <r>    41.1133     1.0911    94.4676 </r>
       <r>    41.1384     4.1974    94.5733 </r>
       <r>    41.1636    -0.0407    94.5723 </r>
       <r>    41.1888     3.2804    94.6549 </r>
       <r>    41.2140     3.0916    94.7327 </r>
       <r>    41.2392     7.1546    94.9129 </r>
       <r>    41.2643     5.0440    95.0399 </r>
       <r>    41.2895     2.4463    95.1015 </r>
       <r>    41.3147    -0.0729    95.0996 </r>
       <r>    41.3399     2.8879    95.1724 </r>
       <r>    41.3651     2.1197    95.2257 </r>
       <r>    41.3902     3.1236    95.3044 </r>
       <r>    41.4154     2.3823    95.3644 </r>
       <r>    41.4406     2.1167    95.4177 </r>
       <r>    41.4658     0.2378    95.4237 </r>
       <r>    41.4910    -0.0039    95.4236 </r>
       <r>    41.5161     0.2282    95.4293 </r>
       <r>    41.5413     2.0415    95.4807 </r>
       <r>    41.5665     0.9651    95.5050 </r>
       <r>    41.5917     0.3884    95.5148 </r>
       <r>    41.6169     3.2707    95.5972 </r>
       <r>    41.6420     1.1971    95.6273 </r>
       <r>    41.6672     0.9430    95.6511 </r>
       <r>    41.6924     2.5401    95.7150 </r>
       <r>    41.7176     0.9318    95.7385 </r>
       <r>    41.7428     0.6097    95.7538 </r>
       <r>    41.7680     0.0192    95.7543 </r>
       <r>    41.7931     1.2991    95.7870 </r>
       <r>    41.8183     1.3121    95.8201 </r>
       <r>    41.8435    -0.0244    95.8194 </r>
       <r>    41.8687    -0.0345    95.8186 </r>
       <r>    41.8939     2.5736    95.8834 </r>
       <r>    41.9190     1.0712    95.9104 </r>
       <r>    41.9442     0.0417    95.9114 </r>
       <r>    41.9694     0.2103    95.9167 </r>
       <r>    41.9946    -0.0011    95.9167 </r>
       <r>    42.0198     0.0000    95.9167 </r>
       <r>    42.0449    -0.0003    95.9167 </r>
       <r>    42.0701     0.3092    95.9244 </r>
       <r>    42.0953     0.7980    95.9445 </r>
       <r>    42.1205    -0.0037    95.9444 </r>
       <r>    42.1457     0.0000    95.9444 </r>
       <r>    42.1708     0.0000    95.9444 </r>
       <r>    42.1960     0.0000    95.9444 </r>
       <r>    42.2212     0.0000    95.9444 </r>
       <r>    42.2464     0.0000    95.9444 </r>
       <r>    42.2716     0.0000    95.9444 </r>
       <r>    42.2967     0.0000    95.9444 </r>
       <r>    42.3219     0.0000    95.9444 </r>
       <r>    42.3471     0.0000    95.9444 </r>
       <r>    42.3723     0.0000    95.9444 </r>
       <r>    42.3975     0.0000    95.9444 </r>
       <r>    42.4226     0.0000    95.9444 </r>
       <r>    42.4478     0.0000    95.9444 </r>
       <r>    42.4730     0.0000    95.9444 </r>
       <r>    42.4982     0.0000    95.9444 </r>
       <r>    42.5234     0.0000    95.9444 </r>
       <r>    42.5485     0.0000    95.9444 </r>
       <r>    42.5737     0.0000    95.9444 </r>
       <r>    42.5989    -0.0004    95.9444 </r>
       <r>    42.6241     0.5025    95.9571 </r>
       <r>    42.6493     1.7139    96.0002 </r>
       <r>    42.6744    -0.0096    96.0000 </r>
       <r>    42.6996     0.0000    96.0000 </r>
       <r>    42.7248     0.0000    96.0000 </r>
       <r>    42.7500     0.0000    96.0000 </r>
       <r>    42.7752     0.0000    96.0000 </r>
       <r>    42.8003     0.0000    96.0000 </r>
       <r>    42.8255     0.0000    96.0000 </r>
       <r>    42.8507     0.0000    96.0000 </r>
       <r>    42.8759     0.0000    96.0000 </r>
       <r>    42.9011     0.0000    96.0000 </r>
       <r>    42.9262     0.0000    96.0000 </r>
       <r>    42.9514     0.0000    96.0000 </r>
       <r>    42.9766     0.0000    96.0000 </r>
       <r>    43.0018     0.0000    96.0000 </r>
       <r>    43.0270     0.0000    96.0000 </r>
       <r>    43.0521     0.0000    96.0000 </r>
       <r>    43.0773     0.0000    96.0000 </r>
       <r>    43.1025     0.0000    96.0000 </r>
       <r>    43.1277     0.0000    96.0000 </r>
       <r>    43.1529     0.0000    96.0000 </r>
       <r>    43.1780     0.0000    96.0000 </r>
       <r>    43.2032     0.0000    96.0000 </r>
       <r>    43.2284     0.0000    96.0000 </r>
       <r>    43.2536     0.0000    96.0000 </r>
       <r>    43.2788     0.0000    96.0000 </r>
       <r>    43.3039     0.0000    96.0000 </r>
       <r>    43.3291     0.0000    96.0000 </r>
       <r>    43.3543     0.0000    96.0000 </r>
       <r>    43.3795     0.0000    96.0000 </r>
       <r>    43.4047     0.0000    96.0000 </r>
       <r>    43.4298     0.0000    96.0000 </r>
       <r>    43.4550     0.0000    96.0000 </r>
       <r>    43.4802     0.0000    96.0000 </r>
       <r>    43.5054     0.0000    96.0000 </r>
       <r>    43.5306     0.0000    96.0000 </r>
       <r>    43.5558     0.0000    96.0000 </r>
       <r>    43.5809     0.0000    96.0000 </r>
       <r>    43.6061     0.0000    96.0000 </r>
       <r>    43.6313     0.0000    96.0000 </r>
       <r>    43.6565     0.0000    96.0000 </r>
       <r>    43.6817     0.0000    96.0000 </r>
       <r>    43.7068     0.0000    96.0000 </r>
       <r>    43.7320     0.0000    96.0000 </r>
       <r>    43.7572     0.0000    96.0000 </r>
       <r>    43.7824     0.0000    96.0000 </r>
       <r>    43.8076     0.0000    96.0000 </r>
       <r>    43.8327     0.0000    96.0000 </r>
       <r>    43.8579     0.0000    96.0000 </r>
       <r>    43.8831     0.0000    96.0000 </r>
       <r>    43.9083     0.0000    96.0000 </r>
       <r>    43.9335     0.0000    96.0000 </r>
       <r>    43.9586     0.0000    96.0000 </r>
       <r>    43.9838     0.0000    96.0000 </r>
       <r>    44.0090     0.0000    96.0000 </r>
       <r>    44.0342     0.0000    96.0000 </r>
       <r>    44.0594     0.0000    96.0000 </r>
       <r>    44.0845     0.0000    96.0000 </r>
       <r>    44.1097     0.0000    96.0000 </r>
       <r>    44.1349     0.0000    96.0000 </r>
       <r>    44.1601     0.0000    96.0000 </r>
       <r>    44.1853     0.0000    96.0000 </r>
       <r>    44.2104     0.0000    96.0000 </r>
       <r>    44.2356     0.0000    96.0000 </r>
       <r>    44.2608     0.0000    96.0000 </r>
       <r>    44.2860     0.0000    96.0000 </r>
       <r>    44.3112     0.0000    96.0000 </r>
       <r>    44.3363     0.0000    96.0000 </r>
       <r>    44.3615     0.0000    96.0000 </r>
       <r>    44.3867     0.0000    96.0000 </r>
       <r>    44.4119     0.0000    96.0000 </r>
       <r>    44.4371     0.0000    96.0000 </r>
       <r>    44.4622     0.0000    96.0000 </r>
       <r>    44.4874     0.0000    96.0000 </r>
       <r>    44.5126     0.0000    96.0000 </r>
       <r>    44.5378     0.0000    96.0000 </r>
       <r>    44.5630     0.0000    96.0000 </r>
       <r>    44.5881     0.0000    96.0000 </r>
       <r>    44.6133     0.0000    96.0000 </r>
       <r>    44.6385     0.0000    96.0000 </r>
       <r>    44.6637     0.0000    96.0000 </r>
       <r>    44.6889     0.0000    96.0000 </r>
       <r>    44.7140     0.0000    96.0000 </r>
       <r>    44.7392     0.0000    96.0000 </r>
       <r>    44.7644     0.0000    96.0000 </r>
       <r>    44.7896     0.0000    96.0000 </r>
       <r>    44.8148     0.0000    96.0000 </r>
       <r>    44.8399     0.0000    96.0000 </r>
       <r>    44.8651     0.0000    96.0000 </r>
       <r>    44.8903     0.0000    96.0000 </r>
       <r>    44.9155     0.0000    96.0000 </r>
      </set>
     </set>
    </array>
   </total>
  </dos>
 </calculation>
 <structure name="finalpos" >
  <crystal>
   <varray name="basis" >
    <v>       4.04016454       0.00000000       0.00000000 </v>
    <v>       0.00000000       4.04016454       0.00000000 </v>
    <v>       0.00000000       0.00000000       4.04016454 </v>
   </varray>
   <i name="volume">     65.94732076 </i>
   <varray name="rec_basis" >
    <v>       0.24751467       0.00000000       0.00000000 </v>
    <v>       0.00000000       0.24751467       0.00000000 </v>
    <v>       0.00000000       0.00000000       0.24751467 </v>
   </varray>
  </crystal>
  <varray name="positions" >
   <v>       0.00000000       0.00000000       0.00000000 </v>
   <v>       0.00000000       0.50000000       0.50000000 </v>
   <v>       0.50000000       0.00000000       0.50000000 </v>
   <v>       0.50000000       0.50000000       0.00000000 </v>
  </varray>
 </structure>
</modeling>
