 vasp.5.4.1 05Feb16 (build Oct 07 2016 17:49:55) complex                        
  
 executed on        GRP7IFC17AVX2 date 2017.06.06  03:58:20
 running on  120 total cores
 distrk:  each k-point on   20 cores,    6 groups
 distr:  one band on NCORES_PER_BAND=  20 cores,    1 groups


--------------------------------------------------------------------------------------------------------


 INCAR:
 POTCAR:    PAW_PBE Sb 06Sep2000                  
 POTCAR:    PAW_PBE Te 08Apr2002                  

 ----------------------------------------------------------------------------- 
|                                                                             |
|           W    W    AA    RRRRR   N    N  II  N    N   GGGG   !!!           |
|           W    W   A  A   R    R  NN   N  II  NN   N  G    G  !!!           |
|           W    W  A    A  R    R  N N  N  II  N N  N  G       !!!           |
|           W WW W  AAAAAA  RRRRR   N  N N  II  N  N N  G  GGG   !            |
|           WW  WW  A    A  R   R   N   NN  II  N   NN  G    G                |
|           W    W  A    A  R    R  N    N  II  N    N   GGGG   !!!           |
|                                                                             |
|      You have enabled k-point parallelism (KPAR>1).                         |
|      This developmental code was originally  written by Paul Kent at ORNL,  |
|      and carefully double checked in Vienna.                                |
|      GW as well as linear response parallelism added by Martijn Marsman     |
|      and Georg Kresse.                                                      |
|      Carefully verify results versus KPAR=1.                                |
|      Report problems to Paul Kent and Vienna.                               |
|                                                                             |
 ----------------------------------------------------------------------------- 

 POTCAR:    PAW_PBE Sb 06Sep2000                  
   VRHFIN =Sb: s2p3                                                             
   LEXCH  = PE                                                                  
   EATOM  =   149.9515 eV,   11.0211 Ry                                         
                                                                                
   TITEL  = PAW_PBE Sb 06Sep2000                                                
   LULTRA =        F    use ultrasoft PP ?                                      
   IUNSCR =        1    unscreen: 0-lin 1-nonlin 2-no                           
   RPACOR =    2.200    partial core radius                                     
   POMASS =  121.750; ZVAL   =    5.000    mass and valenz                      
   RCORE  =    2.300    outmost cutoff radius                                   
   RWIGS  =    2.980; RWIGS  =    1.577    wigner-seitz radius (au A)           
   ENMAX  =  172.069; ENMIN  =  129.052 eV                                      
   ICORE  =        3    local potential                                         
   LCOR   =        T    correct aug charges                                     
   LPAW   =        T    paw PP                                                  
   EAUG   =  380.513                                                            
   DEXC   =    0.000                                                            
   RMAX   =    2.346    core radius for proj-oper                               
   RAUG   =    1.300    factor for augmentation sphere                          
   RDEP   =    2.360    radius for radial grids                                 
   RDEPT  =    2.192    core radius for aug-charge                              
                                                                                
   Atomic configuration                                                         
   13 entries                                                                   
     n  l   j            E        occ.                                          
     1  0  0.50    -30298.2797   2.0000                                         
     2  0  0.50     -4610.2252   2.0000                                         
     2  1  1.50     -4138.3407   6.0000                                         
     3  0  0.50      -903.8815   2.0000                                         
     3  1  1.50      -750.1337   6.0000                                         
     3  2  2.50      -515.7092  10.0000                                         
     4  0  0.50      -148.8034   2.0000                                         
     4  1  1.50      -101.7581   6.0000                                         
     4  2  2.50       -33.5048  10.0000                                         
     5  0  0.50       -12.8298   2.0000                                         
     5  1  0.50        -4.8276   3.0000                                         
     5  2  1.50        -4.0817   0.0000                                         
     4  3  2.50        -4.0817   0.0000                                         
   Description                                                                  
     l       E           TYP  RCUT    TYP  RCUT                                 
     0    -12.8297861     23  2.300                                             
     0     13.6058260     23  2.300                                             
     1     -4.8275512     23  2.300                                             
     1     -0.7245443     23  2.300                                             
     2     -4.0817478     23  2.300                                             
     3     -1.3605826     23  2.300                                             
  local pseudopotential read in
  partial core-charges read in
  partial kinetic energy density read in
  atomic valenz-charges read in
  non local Contribution for L=           0  read in
    real space projection operators read in
  non local Contribution for L=           0  read in
    real space projection operators read in
  non local Contribution for L=           1  read in
    real space projection operators read in
  non local Contribution for L=           1  read in
    real space projection operators read in
  non local Contribution for L=           2  read in
    real space projection operators read in
    PAW grid and wavefunctions read in
 
   number of l-projection  operators is LMAX  =           5
   number of lm-projection operators is LMMAX =          13
 
 POTCAR:    PAW_PBE Te 08Apr2002                  
   VRHFIN =Te: s2p4                                                             
   LEXCH  = PE                                                                  
   EATOM  =   223.2721 eV,   16.4100 Ry                                         
                                                                                
   TITEL  = PAW_PBE Te 08Apr2002                                                
   LULTRA =        F    use ultrasoft PP ?                                      
   IUNSCR =        1    unscreen: 0-lin 1-nonlin 2-no                           
   RPACOR =    2.200    partial core radius                                     
   POMASS =  127.600; ZVAL   =    6.000    mass and valenz                      
   RCORE  =    2.300    outmost cutoff radius                                   
   RWIGS  =    2.900; RWIGS  =    1.535    wigner-seitz radius (au A)           
   ENMAX  =  174.982; ENMIN  =  131.236 eV                                      
   ICORE  =        3    local potential                                         
   LCOR   =        T    correct aug charges                                     
   LPAW   =        T    paw PP                                                  
   EAUG   =  368.792                                                            
   DEXC   =    0.000                                                            
   RMAX   =    2.345    core radius for proj-oper                               
   RAUG   =    1.300    factor for augmentation sphere                          
   RDEP   =    2.397    radius for radial grids                                 
   RDEPT  =    2.174    core radius for aug-charge                              
                                                                                
   Atomic configuration                                                         
   13 entries                                                                   
     n  l   j            E        occ.                                          
     1  0  0.50    -31621.2075   2.0000                                         
     2  0  0.50     -4848.7941   2.0000                                         
     2  1  1.50     -4352.1960   6.0000                                         
     3  0  0.50      -964.9612   2.0000                                         
     3  1  1.50      -803.6179   6.0000                                         
     3  2  2.50      -559.8710  10.0000                                         
     4  0  0.50      -164.3522   2.0000                                         
     4  1  1.50      -114.3756   6.0000                                         
     4  2  2.50       -41.6483  10.0000                                         
     5  0  0.50       -15.1072   2.0000                                         
     5  1  0.50        -5.9526   4.0000                                         
     5  2  1.50        -5.4423   0.0000                                         
     4  3  2.50        -5.4423   0.0000                                         
   Description                                                                  
     l       E           TYP  RCUT    TYP  RCUT                                 
     0    -15.1072389     23  2.300                                             
     0    -16.4678215     23  2.300                                             
     1     -5.9526306     23  2.300                                             
     1     -2.4873968     23  2.300                                             
     2     -5.4423304     23  2.300                                             
     3     -1.3605826     23  2.300                                             
  local pseudopotential read in
  partial core-charges read in
  partial kinetic energy density read in
  atomic valenz-charges read in
  non local Contribution for L=           0  read in
    real space projection operators read in
  non local Contribution for L=           0  read in
    real space projection operators read in
  non local Contribution for L=           1  read in
    real space projection operators read in
  non local Contribution for L=           1  read in
    real space projection operators read in
  non local Contribution for L=           2  read in
    real space projection operators read in
    PAW grid and wavefunctions read in
 
   number of l-projection  operators is LMAX  =           5
   number of lm-projection operators is LMMAX =          13
 

 ----------------------------------------------------------------------------- 
|                                                                             |
|  ADVICE TO THIS USER RUNNING 'VASP/VAMP'   (HEAR YOUR MASTER'S VOICE ...):  |
|                                                                             |
|      You have a (more or less) 'large supercell' and for larger cells       |
|      it might be more efficient to use real space projection opertators     |
|      So try LREAL= Auto  in the INCAR   file.                               |
|      Mind: At the moment your POTCAR file does not contain real space       |
|       projectors, and has to be modified,  BUT if you                       |
|      want to do an extremely  accurate calculation you might also keep the  |
|      reciprocal projection scheme          (i.e. LREAL=.FALSE.)             |
|                                                                             |
 ----------------------------------------------------------------------------- 

  PAW_PBE Sb 06Sep2000                  :
 energy of atom  1       EATOM= -149.9515
 kinetic energy error for atom=    0.0008 (will be added to EATOM!!)
  PAW_PBE Te 08Apr2002                  :
 energy of atom  2       EATOM= -223.2721
 kinetic energy error for atom=    0.0011 (will be added to EATOM!!)
 
 
 POSCAR: Sb2Te3 4QL                              
  positions in direct lattice
  No initial velocities read in
 exchange correlation table for  LEXCH =        8
   RHO(1)=    0.500       N(1)  =     2000
   RHO(2)=  100.500       N(2)  =     4000
 


--------------------------------------------------------------------------------------------------------


 ion  position               nearest neighbor table
   1  0.000  0.000  0.097-  14 3.00  14 3.00  14 3.00  18 3.14  18 3.14  18 3.14
   2  0.000  0.000  0.628-  15 2.99  15 2.99  15 2.99  19 3.15  19 3.15  19 3.15
   3  0.000  0.000  0.206-  13 3.00  13 3.00  13 3.00  20 3.14  20 3.14  20 3.14
   4  0.667  0.333  0.274-   9 2.99   9 2.99   9 2.99  20 3.14  20 3.14  20 3.14
   5  0.667  0.333  0.383-  16 3.00  16 3.00  16 3.00  17 3.14  17 3.14  17 3.14
   6  0.333  0.667  0.451-  12 2.99  12 2.99  12 2.99  17 3.14  17 3.14  17 3.14
   7  0.333  0.667  0.029-  10 2.99  10 2.99  10 2.99  18 3.15  18 3.15  18 3.15
   8  0.333  0.667  0.560-  11 3.00  11 3.00  11 3.00  19 3.14  19 3.14  19 3.14
   9  0.000  0.000  0.303-   4 2.99   4 2.99   4 2.99
  10  0.000  0.000  0.000-   7 2.99   7 2.99   7 2.99
  11  0.000  0.000  0.531-   8 3.00   8 3.00   8 3.00
  12  0.667  0.333  0.480-   6 2.99   6 2.99   6 2.99
  13  0.667  0.333  0.177-   3 3.00   3 3.00   3 3.00
  14  0.333  0.667  0.127-   1 3.00   1 3.00   1 3.00
  15  0.333  0.667  0.657-   2 2.99   2 2.99   2 2.99
  16  0.333  0.667  0.354-   5 3.00   5 3.00   5 3.00
  17  0.000  0.000  0.417-   5 3.14   5 3.14   5 3.14   6 3.14   6 3.14   6 3.14
  18  0.667  0.333  0.063-   1 3.14   1 3.14   1 3.14   7 3.15   7 3.15   7 3.15
  19  0.667  0.333  0.594-   8 3.14   8 3.14   8 3.14   2 3.15   2 3.15   2 3.15
  20  0.333  0.667  0.240-   3 3.14   3 3.14   3 3.14   4 3.14   4 3.14   4 3.14
 

IMPORTANT INFORMATION: All symmetrisations will be switched off!
NOSYMM: (Re-)initialisation of all symmetry stuff for point group C_1.

 
 
 KPOINTS: ST_SG                                   
  interpolating k-points between supplied coordinates
  k-points in reciprocal lattice
Space group operators:
 irot       det(A)        alpha          n_x          n_y          n_z        tau_x        tau_y        tau_z
    1     1.000000     0.000000     1.000000     0.000000     0.000000     0.000000     0.000000     0.000000


--------------------------------------------------------------------------------------------------------




 Dimension of arrays:
   k-points           NKPTS =     80   k-points in BZ     NKDIM =     80   number of bands    NBANDS=    154
   number of dos      NEDOS =    301   number of ions     NIONS =     20
   non local maximal  LDIM  =      5   non local SUM 2l+1 LMDIM =     13
   total plane-waves  NPLWV = 301056
   max r-space proj   IRMAX =      1   max aug-charges    IRDMAX= 154221
   dimension x,y,z NGX =    28 NGY =   28 NGZ =  384
   dimension x,y,z NGXF=    56 NGYF=   56 NGZF=  768
   support grid    NGXF=   112 NGYF=  112 NGZF= 1536
   ions per type =               8  12
 NGX,Y,Z   is equivalent  to a cutoff of  10.97, 10.97, 10.94 a.u.
 NGXF,Y,Z  is equivalent  to a cutoff of  21.95, 21.95, 21.88 a.u.


 I would recommend the setting:
   dimension x,y,z NGX =    28 NGY =   28 NGZ =  381
 SYSTEM =  unknown system                          
 POSCAR =  Sb2Te3 4QL                              

 Startparameter for this run:
   NWRITE =      2    write-flag & timer
   PREC   = accura    normal or accurate (medium, high low for compatibility)
   ISTART =      0    job   : 0-new  1-cont  2-samecut
   ICHARG =     11    charge: 1-file 2-atom 10-const
   ISPIN  =      1    spin polarized calculation?
   LNONCOLLINEAR =      T non collinear calculations
   LSORBIT =      T    spin-orbit coupling
   INIWAV =      1    electr: 0-lowe 1-rand  2-diag
   LASPH  =      T    aspherical Exc in radial PAW
   METAGGA=      F    non-selfconsistent MetaGGA calc.

 Electronic Relaxation 1
   ENCUT  =  400.0 eV  29.40 Ry    5.42 a.u.   6.92  6.92 95.15*2*pi/ulx,y,z
   ENINI  =  400.0     initial cutoff
   ENAUG  =  380.5 eV  augmentation charge cutoff
   NELM   =    200;   NELMIN= 10; NELMDL= -5     # of ELM steps 
   EDIFF  = 0.1E-04   stopping-criterion for ELM
   LREAL  =      F    real-space projection
   NLSPLINE    = F    spline interpolate recip. space projectors
   LCOMPAT=      F    compatible to vasp.4.4
   GGA_COMPAT  = F    GGA compatible to vasp.4.4-vasp.4.6
   LMAXPAW     = -100 max onsite density
   LMAXMIX     =    4 max onsite mixed and CHGCAR
   VOSKOWN=      0    Vosko Wilk Nusair interpolation
   ROPT   =    0.00000   0.00000
 Ionic relaxation
   EDIFFG = 0.1E-03   stopping-criterion for IOM
   NSW    =      0    number of steps for IOM
   NBLOCK =      1;   KBLOCK =      1    inner block; outer block 
   IBRION =     -1    ionic relax: 0-MD 1-quasi-New 2-CG
   NFREE  =      0    steps in history (QN), initial steepest desc. (CG)
   ISIF   =      2    stress and relaxation
   IWAVPR =     10    prediction:  0-non 1-charg 2-wave 3-comb
   ISYM   =     -1    0-nonsym 1-usesym 2-fastsym
   LCORR  =      T    Harris-Foulkes like correction to forces

   POTIM  = 0.5000    time-step for ionic-motion
   TEIN   =    0.0    initial temperature
   TEBEG  =    0.0;   TEEND  =   0.0 temperature during run
   SMASS  =  -3.00    Nose mass-parameter (am)
   estimated Nose-frequenzy (Omega)   =  0.10E-29 period in steps =****** mass=  -0.411E-27a.u.
   SCALEE = 1.0000    scale energy and forces
   NPACO  =    256;   APACO  = 16.0  distance and # of slots for P.C.
   PSTRESS=    0.0 pullay stress

  Mass of Ions in am
   POMASS = 121.75127.60
  Ionic Valenz
   ZVAL   =   5.00  6.00
  Atomic Wigner-Seitz radii
   RWIGS  =  -1.00 -1.00
  virtual crystal weights 
   VCA    =   1.00  1.00
   NELECT =     112.0000    total number of electrons
   NUPDOWN=      -1.0000    fix difference up-down

 DOS related values:
   EMIN   =  10.00;   EMAX   =-10.00  energy-range for DOS
   EFERMI =   0.00
   ISMEAR =     0;   SIGMA  =   0.01  broadening in eV -4-tet -1-fermi 0-gaus

 Electronic relaxation 2 (details)
   IALGO  =     38    algorithm
   LDIAG  =      T    sub-space diagonalisation (order eigenvalues)
   LSUBROT=      F    optimize rotation matrix (better conditioning)
   TURBO    =      0    0=normal 1=particle mesh
   IRESTART =      0    0=no restart 2=restart with 2 vectors
   NREBOOT  =      0    no. of reboots
   NMIN     =      0    reboot dimension
   EREF     =   0.00    reference energy to select bands
   IMIX   =      4    mixing-type and parameters
     AMIX     =   0.40;   BMIX     =  1.00
     AMIX_MAG =   1.60;   BMIX_MAG =  1.00
     AMIN     =   0.01
     WC   =   100.;   INIMIX=   1;  MIXPRE=   1;  MAXMIX= -45

 Intra band minimization:
   WEIMIN = 0.0000     energy-eigenvalue tresh-hold
   EBREAK =  0.16E-07  absolut break condition
   DEPER  =   0.30     relativ break condition  

   TIME   =   0.40     timestep for ELM

  volume/ion in A,a.u.               =      45.47       306.84
  Fermi-wavevector in a.u.,A,eV,Ry     =   0.814511  1.539202  9.026485  0.663428
  Thomas-Fermi vector in A             =   1.924431
 
 Write flags
   LWAVE  =      F    write WAVECAR
   LCHARG =      F    write CHGCAR
   LVTOT  =      F    write LOCPOT, total local potential
   LVHAR  =      F    write LOCPOT, Hartree potential only
   LELF   =      F    write electronic localiz. function (ELF)
   LORBIT =     10    0 simple, 1 ext, 2 COOP (PROOUT)


 Dipole corrections
   LMONO  =      F    monopole corrections only (constant potential shift)
   LDIPOL =      F    correct potential (dipole corrections)
   IDIPOL =      0    1-x, 2-y, 3-z, 4-all directions 
   EPSILON=  1.0000000 bulk dielectric constant

 Exchange correlation treatment:
   GGA     =    --    GGA type
   LEXCH   =     8    internal setting for exchange type
   VOSKOWN=      0    Vosko Wilk Nusair interpolation
   LHFCALC =     F    Hartree Fock is set to
   LHFONE  =     F    Hartree Fock one center treatment
   AEXX    =    0.0000 exact exchange contribution

 Linear response parameters
   LEPSILON=     F    determine dielectric tensor
   LRPA    =     F    only Hartree local field effects (RPA)
   LNABLA  =     F    use nabla operator in PAW spheres
   LVEL    =     F    velocity operator in full k-point grid
   LINTERFAST=   F  fast interpolation
   KINTER  =     0    interpolate to denser k-point grid
   CSHIFT  =0.1000    complex shift for real part using Kramers Kronig
   OMEGAMAX=  -1.0    maximum frequency
   DEG_THRESHOLD= 0.2000000E-02 threshold for treating states as degnerate
   RTIME   =    0.100 relaxation time in fs

 Orbital magnetization related:
   ORBITALMAG=     F  switch on orbital magnetization
   LCHIMAG   =     F  perturbation theory with respect to B field
   DQ        =  0.001000  dq finite difference perturbation B field



--------------------------------------------------------------------------------------------------------


 Static calculation
 charge density and potential remain constant during run
 non collinear spin polarized calculation
 Variant of blocked Davidson
 Davidson routine will perform the subspace rotation
 perform sub-space diagonalisation
    after iterative eigenvector-optimisation
 no mixing
 using additional bands           98
 reciprocal scheme for non local part
 use partial core corrections
 calculate Harris-corrections to forces 
   (improved forces if not selfconsistent)
 use gradient corrections 
 WARNING: stress and forces are not correct
  (second derivative of E(xc) not defined)
 use of overlap-Matrix (Vanderbilt PP)
 Gauss-broadening in eV      SIGMA  =   0.01


--------------------------------------------------------------------------------------------------------


  energy-cutoff  :      400.00
  volume of cell :      909.39
      direct lattice vectors                 reciprocal lattice vectors
     4.242184162  0.000000000  0.000000000     0.235727626  0.136097408  0.000000000
    -2.121092081  3.673839252  0.000000000     0.000000000  0.272194816  0.000000000
     0.000000000  0.000000000 58.350179789     0.000000000  0.000000000  0.017137908

  length of vectors
     4.242184162  4.242184162 58.350179789     0.272194816  0.272194816  0.017137908


 
 k-points in units of 2pi/SCALE and weight: ST_SG                                   
   0.01964389  0.03402422  0.00000000       0.013
   0.01914020  0.03315180  0.00000000       0.013
   0.01863651  0.03227938  0.00000000       0.013
   0.01813282  0.03140697  0.00000000       0.013
   0.01762913  0.03053455  0.00000000       0.013
   0.01712544  0.02966214  0.00000000       0.013
   0.01662175  0.02878972  0.00000000       0.013
   0.01611806  0.02791731  0.00000000       0.013
   0.01561437  0.02704489  0.00000000       0.013
   0.01511068  0.02617247  0.00000000       0.013
   0.01460700  0.02530006  0.00000000       0.013
   0.01410331  0.02442764  0.00000000       0.013
   0.01359962  0.02355523  0.00000000       0.013
   0.01309593  0.02268281  0.00000000       0.013
   0.01259224  0.02181039  0.00000000       0.013
   0.01208855  0.02093798  0.00000000       0.013
   0.01158486  0.02006556  0.00000000       0.013
   0.01108117  0.01919315  0.00000000       0.013
   0.01057748  0.01832073  0.00000000       0.013
   0.01007379  0.01744832  0.00000000       0.013
   0.00957010  0.01657590  0.00000000       0.013
   0.00906641  0.01570348  0.00000000       0.013
   0.00856272  0.01483107  0.00000000       0.013
   0.00805903  0.01395865  0.00000000       0.013
   0.00755534  0.01308624  0.00000000       0.013
   0.00705165  0.01221382  0.00000000       0.013
   0.00654796  0.01134141  0.00000000       0.013
   0.00604427  0.01046899  0.00000000       0.013
   0.00554058  0.00959657  0.00000000       0.013
   0.00503689  0.00872416  0.00000000       0.013
   0.00453321  0.00785174  0.00000000       0.013
   0.00402952  0.00697933  0.00000000       0.013
   0.00352583  0.00610691  0.00000000       0.013
   0.00302214  0.00523449  0.00000000       0.013
   0.00251845  0.00436208  0.00000000       0.013
   0.00201476  0.00348966  0.00000000       0.013
   0.00151107  0.00261725  0.00000000       0.013
   0.00100738  0.00174483  0.00000000       0.013
   0.00050369  0.00087242  0.00000000       0.013
  -0.00000000 -0.00000000  0.00000000       0.013
   0.00000000  0.00000000  0.00000000       0.013
   0.00075554  0.00043621  0.00000000       0.013
   0.00151107  0.00087242  0.00000000       0.013
   0.00226661  0.00130863  0.00000000       0.013
   0.00302215  0.00174484  0.00000000       0.013
   0.00377769  0.00218105  0.00000000       0.013
   0.00453322  0.00261726  0.00000000       0.013
   0.00528876  0.00305347  0.00000000       0.013
   0.00604430  0.00348968  0.00000000       0.013
   0.00679984  0.00392589  0.00000000       0.013
   0.00755537  0.00436210  0.00000000       0.013
   0.00831091  0.00479831  0.00000000       0.013
   0.00906645  0.00523452  0.00000000       0.013
   0.00982198  0.00567073  0.00000000       0.013
   0.01057752  0.00610693  0.00000000       0.013
   0.01133306  0.00654314  0.00000000       0.013
   0.01208860  0.00697935  0.00000000       0.013
   0.01284413  0.00741556  0.00000000       0.013
   0.01359967  0.00785177  0.00000000       0.013
   0.01435521  0.00828798  0.00000000       0.013
   0.01511075  0.00872419  0.00000000       0.013
   0.01586628  0.00916040  0.00000000       0.013
   0.01662182  0.00959661  0.00000000       0.013
   0.01737736  0.01003282  0.00000000       0.013
   0.01813289  0.01046903  0.00000000       0.013
   0.01888843  0.01090524  0.00000000       0.013
   0.01964397  0.01134145  0.00000000       0.013
   0.02039951  0.01177766  0.00000000       0.013
   0.02115504  0.01221387  0.00000000       0.013
   0.02191058  0.01265008  0.00000000       0.013
   0.02266612  0.01308629  0.00000000       0.013
   0.02342166  0.01352250  0.00000000       0.013
   0.02417719  0.01395871  0.00000000       0.013
   0.02493273  0.01439492  0.00000000       0.013
   0.02568827  0.01483113  0.00000000       0.013
   0.02644380  0.01526734  0.00000000       0.013
   0.02719934  0.01570355  0.00000000       0.013
   0.02795488  0.01613976  0.00000000       0.013
   0.02871042  0.01657597  0.00000000       0.013
   0.02946595  0.01701218  0.00000000       0.013
 
 k-points in reciprocal lattice and weights: ST_SG                                   
   0.08333300  0.08333300  0.00000000       0.013
   0.08119626  0.08119626  0.00000000       0.013
   0.07905951  0.07905951  0.00000000       0.013
   0.07692277  0.07692277  0.00000000       0.013
   0.07478603  0.07478603  0.00000000       0.013
   0.07264928  0.07264928  0.00000000       0.013
   0.07051254  0.07051254  0.00000000       0.013
   0.06837579  0.06837579  0.00000000       0.013
   0.06623905  0.06623905  0.00000000       0.013
   0.06410231  0.06410231  0.00000000       0.013
   0.06196556  0.06196556  0.00000000       0.013
   0.05982882  0.05982882  0.00000000       0.013
   0.05769208  0.05769208  0.00000000       0.013
   0.05555533  0.05555533  0.00000000       0.013
   0.05341859  0.05341859  0.00000000       0.013
   0.05128185  0.05128185  0.00000000       0.013
   0.04914510  0.04914510  0.00000000       0.013
   0.04700836  0.04700836  0.00000000       0.013
   0.04487162  0.04487162  0.00000000       0.013
   0.04273487  0.04273487  0.00000000       0.013
   0.04059813  0.04059813  0.00000000       0.013
   0.03846138  0.03846138  0.00000000       0.013
   0.03632464  0.03632464  0.00000000       0.013
   0.03418790  0.03418790  0.00000000       0.013
   0.03205115  0.03205115  0.00000000       0.013
   0.02991441  0.02991441  0.00000000       0.013
   0.02777767  0.02777767  0.00000000       0.013
   0.02564092  0.02564092  0.00000000       0.013
   0.02350418  0.02350418  0.00000000       0.013
   0.02136744  0.02136744  0.00000000       0.013
   0.01923069  0.01923069  0.00000000       0.013
   0.01709395  0.01709395  0.00000000       0.013
   0.01495721  0.01495721  0.00000000       0.013
   0.01282046  0.01282046  0.00000000       0.013
   0.01068372  0.01068372  0.00000000       0.013
   0.00854697  0.00854697  0.00000000       0.013
   0.00641023  0.00641023  0.00000000       0.013
   0.00427349  0.00427349  0.00000000       0.013
   0.00213674  0.00213674  0.00000000       0.013
  -0.00000000 -0.00000000  0.00000000       0.013
   0.00000000  0.00000000  0.00000000       0.013
   0.00320513  0.00000000  0.00000000       0.013
   0.00641026  0.00000000  0.00000000       0.013
   0.00961538  0.00000000  0.00000000       0.013
   0.01282051  0.00000000  0.00000000       0.013
   0.01602564  0.00000000  0.00000000       0.013
   0.01923077  0.00000000  0.00000000       0.013
   0.02243590  0.00000000  0.00000000       0.013
   0.02564103  0.00000000  0.00000000       0.013
   0.02884615  0.00000000  0.00000000       0.013
   0.03205128  0.00000000  0.00000000       0.013
   0.03525641  0.00000000  0.00000000       0.013
   0.03846154  0.00000000  0.00000000       0.013
   0.04166667  0.00000000  0.00000000       0.013
   0.04487179  0.00000000  0.00000000       0.013
   0.04807692  0.00000000  0.00000000       0.013
   0.05128205  0.00000000  0.00000000       0.013
   0.05448718  0.00000000  0.00000000       0.013
   0.05769231  0.00000000  0.00000000       0.013
   0.06089744  0.00000000  0.00000000       0.013
   0.06410256  0.00000000  0.00000000       0.013
   0.06730769  0.00000000  0.00000000       0.013
   0.07051282  0.00000000  0.00000000       0.013
   0.07371795  0.00000000  0.00000000       0.013
   0.07692308  0.00000000  0.00000000       0.013
   0.08012821  0.00000000  0.00000000       0.013
   0.08333333  0.00000000  0.00000000       0.013
   0.08653846  0.00000000  0.00000000       0.013
   0.08974359  0.00000000  0.00000000       0.013
   0.09294872  0.00000000  0.00000000       0.013
   0.09615385  0.00000000  0.00000000       0.013
   0.09935897  0.00000000  0.00000000       0.013
   0.10256410  0.00000000  0.00000000       0.013
   0.10576923  0.00000000  0.00000000       0.013
   0.10897436  0.00000000  0.00000000       0.013
   0.11217949  0.00000000  0.00000000       0.013
   0.11538462  0.00000000  0.00000000       0.013
   0.11858974  0.00000000  0.00000000       0.013
   0.12179487  0.00000000  0.00000000       0.013
   0.12500000  0.00000000  0.00000000       0.013
 
 position of ions in fractional coordinates (direct lattice) 
   0.00000000  0.00000000  0.09706612
   0.00000000  0.00000000  0.62776987
   0.00000000  0.00000000  0.20642508
   0.66666669  0.33333334  0.27394180
   0.66666669  0.33333334  0.38330734
   0.33333334  0.66666669  0.45084130
   0.33333334  0.66666669  0.02947327
   0.33333334  0.66666669  0.56019938
   0.00000000  0.00000000  0.30346881
   0.00000000  0.00000000  0.00004078
   0.00000000  0.00000000  0.53062138
   0.66666669  0.33333334  0.48034265
   0.66666669  0.33333334  0.17688138
   0.33333334  0.66666669  0.12661017
   0.33333334  0.66666669  0.65720722
   0.33333334  0.66666669  0.35376029
   0.00000000  0.00000000  0.41705968
   0.66666669  0.33333334  0.06329438
   0.66666669  0.33333334  0.59393962
   0.33333334  0.66666669  0.24017039
 
 position of ions in cartesian coordinates  (Angst):
   0.00000000  0.00000000  5.66382562
   0.00000000  0.00000000 36.63048488
   0.00000000  0.00000000 12.04494045
   2.12109214  1.22461312 15.98455346
   2.12109214  1.22461312 22.36605236
   0.00000000  2.44922624 26.30667115
   0.00000000  2.44922624  1.71977064
   0.00000000  2.44922624 32.68773445
   0.00000000  0.00000000 17.70745969
   0.00000000  0.00000000  0.00237941
   0.00000000  0.00000000 30.96185275
   2.12109214  1.22461312 28.02808003
   2.12109214  1.22461312 10.32106023
   0.00000000  2.44922624  7.38772593
   0.00000000  2.44922624 38.34815963
   0.00000000  2.44922624 20.64197653
   0.00000000  0.00000000 24.33550731
   2.12109214  1.22461312  3.69323858
   2.12109214  1.22461312 34.65648353
   0.00000000  2.44922624 14.01398568
 
 Euler angles ALPHA=     0.0000000  BETA=     0.0000000

 transformation matrix from SAXIS to cartesian coordinates
 ---------------------------------------------------------
     1.0000000 m_x     0.0000000 m_y     0.0000000 m_z
     0.0000000 m_x     1.0000000 m_y     0.0000000 m_z
     0.0000000 m_x     0.0000000 m_y     1.0000000 m_z

 transformation matrix from cartesian coordinates to SAXIS
 ---------------------------------------------------------
     1.0000000 m_x     0.0000000 m_y     0.0000000 m_z
     0.0000000 m_x     1.0000000 m_y     0.0000000 m_z
     0.0000000 m_x     0.0000000 m_y     1.0000000 m_z




--------------------------------------------------------------------------------------------------------


 k-point  1 :   0.0833 0.0833 0.0000  plane waves:   32770
 k-point  2 :   0.0812 0.0812 0.0000  plane waves:   32774
 k-point  3 :   0.0791 0.0791 0.0000  plane waves:   32762
 k-point  4 :   0.0769 0.0769 0.0000  plane waves:   32762
 k-point  5 :   0.0748 0.0748 0.0000  plane waves:   32762
 k-point  6 :   0.0726 0.0726 0.0000  plane waves:   32754
 k-point  7 :   0.0705 0.0705 0.0000  plane waves:   32750
 k-point  8 :   0.0684 0.0684 0.0000  plane waves:   32718
 k-point  9 :   0.0662 0.0662 0.0000  plane waves:   32730
 k-point 10 :   0.0641 0.0641 0.0000  plane waves:   32730
 k-point 11 :   0.0620 0.0620 0.0000  plane waves:   32714
 k-point 12 :   0.0598 0.0598 0.0000  plane waves:   32698
 k-point 13 :   0.0577 0.0577 0.0000  plane waves:   32698
 k-point 14 :   0.0556 0.0556 0.0000  plane waves:   32662
 k-point 15 :   0.0534 0.0534 0.0000  plane waves:   32654
 k-point 16 :   0.0513 0.0513 0.0000  plane waves:   32634
 k-point 17 :   0.0491 0.0491 0.0000  plane waves:   32642
 k-point 18 :   0.0470 0.0470 0.0000  plane waves:   32630
 k-point 19 :   0.0449 0.0449 0.0000  plane waves:   32638
 k-point 20 :   0.0427 0.0427 0.0000  plane waves:   32630
 k-point 21 :   0.0406 0.0406 0.0000  plane waves:   32630
 k-point 22 :   0.0385 0.0385 0.0000  plane waves:   32646
 k-point 23 :   0.0363 0.0363 0.0000  plane waves:   32630
 k-point 24 :   0.0342 0.0342 0.0000  plane waves:   32626
 k-point 25 :   0.0321 0.0321 0.0000  plane waves:   32622
 k-point 26 :   0.0299 0.0299 0.0000  plane waves:   32638
 k-point 27 :   0.0278 0.0278 0.0000  plane waves:   32618
 k-point 28 :   0.0256 0.0256 0.0000  plane waves:   32618
 k-point 29 :   0.0235 0.0235 0.0000  plane waves:   32610
 k-point 30 :   0.0214 0.0214 0.0000  plane waves:   32602
 k-point 31 :   0.0192 0.0192 0.0000  plane waves:   32602
 k-point 32 :   0.0171 0.0171 0.0000  plane waves:   32614
 k-point 33 :   0.0150 0.0150 0.0000  plane waves:   32606
 k-point 34 :   0.0128 0.0128 0.0000  plane waves:   32586
 k-point 35 :   0.0107 0.0107 0.0000  plane waves:   32606
 k-point 36 :   0.0085 0.0085 0.0000  plane waves:   32614
 k-point 37 :   0.0064 0.0064 0.0000  plane waves:   32586
 k-point 38 :   0.0043 0.0043 0.0000  plane waves:   32574
 k-point 39 :   0.0021 0.0021 0.0000  plane waves:   32582
 k-point 40 :  -0.0000-0.0000 0.0000  plane waves:   32566
 k-point 41 :   0.0000 0.0000 0.0000  plane waves:   32566
 k-point 42 :   0.0032 0.0000 0.0000  plane waves:   32590
 k-point 43 :   0.0064 0.0000 0.0000  plane waves:   32574
 k-point 44 :   0.0096 0.0000 0.0000  plane waves:   32572
 k-point 45 :   0.0128 0.0000 0.0000  plane waves:   32584
 k-point 46 :   0.0160 0.0000 0.0000  plane waves:   32580
 k-point 47 :   0.0192 0.0000 0.0000  plane waves:   32592
 k-point 48 :   0.0224 0.0000 0.0000  plane waves:   32588
 k-point 49 :   0.0256 0.0000 0.0000  plane waves:   32604
 k-point 50 :   0.0288 0.0000 0.0000  plane waves:   32604
 k-point 51 :   0.0321 0.0000 0.0000  plane waves:   32608
 k-point 52 :   0.0353 0.0000 0.0000  plane waves:   32616
 k-point 53 :   0.0385 0.0000 0.0000  plane waves:   32628
 k-point 54 :   0.0417 0.0000 0.0000  plane waves:   32632
 k-point 55 :   0.0449 0.0000 0.0000  plane waves:   32636
 k-point 56 :   0.0481 0.0000 0.0000  plane waves:   32636
 k-point 57 :   0.0513 0.0000 0.0000  plane waves:   32664
 k-point 58 :   0.0545 0.0000 0.0000  plane waves:   32664
 k-point 59 :   0.0577 0.0000 0.0000  plane waves:   32656
 k-point 60 :   0.0609 0.0000 0.0000  plane waves:   32664
 k-point 61 :   0.0641 0.0000 0.0000  plane waves:   32672
 k-point 62 :   0.0673 0.0000 0.0000  plane waves:   32672
 k-point 63 :   0.0705 0.0000 0.0000  plane waves:   32680
 k-point 64 :   0.0737 0.0000 0.0000  plane waves:   32688
 k-point 65 :   0.0769 0.0000 0.0000  plane waves:   32684
 k-point 66 :   0.0801 0.0000 0.0000  plane waves:   32684
 k-point 67 :   0.0833 0.0000 0.0000  plane waves:   32672
 k-point 68 :   0.0865 0.0000 0.0000  plane waves:   32676
 k-point 69 :   0.0897 0.0000 0.0000  plane waves:   32692
 k-point 70 :   0.0929 0.0000 0.0000  plane waves:   32684
 k-point 71 :   0.0962 0.0000 0.0000  plane waves:   32688
 k-point 72 :   0.0994 0.0000 0.0000  plane waves:   32676
 k-point 73 :   0.1026 0.0000 0.0000  plane waves:   32688
 k-point 74 :   0.1058 0.0000 0.0000  plane waves:   32708
 k-point 75 :   0.1090 0.0000 0.0000  plane waves:   32716
 k-point 76 :   0.1122 0.0000 0.0000  plane waves:   32740
 k-point 77 :   0.1154 0.0000 0.0000  plane waves:   32780
 k-point 78 :   0.1186 0.0000 0.0000  plane waves:   32784
 k-point 79 :   0.1218 0.0000 0.0000  plane waves:   32780
 k-point 80 :   0.1250 0.0000 0.0000  plane waves:   32788

 maximum and minimum number of plane-waves per node :      1654     1606

 maximum number of plane-waves:     32788
 maximum index in each direction: 
   IXMAX=    6   IYMAX=    6   IZMAX=   95
   IXMIN=   -7   IYMIN=   -6   IZMIN=  -95

 NGX is ok and might be reduce to  28
 NGY is ok and might be reduce to  26
 NGZ is ok and might be reduce to 382

 parallel 3D FFT for wavefunctions:
    minimum data exchange during FFTs selected (reduces bandwidth)
 parallel 3D FFT for charge:
    minimum data exchange during FFTs selected (reduces bandwidth)


 total amount of memory used by VASP on root node   445419. kBytes
========================================================================

   base      :      30000. kBytes
   nonl-proj :      13975. kBytes
   fftplans  :      37716. kBytes
   grid      :      33718. kBytes
   one-center:         32. kBytes
   wavefun   :     329978. kBytes
 
     INWAV:  cpu time    0.0001: real time    0.0004
 initial charge density was supplied:
 number of electron     111.9999999 magnetization       0.0000000      0.0000000      0.0000464
 keeping initial charge density in first step


--------------------------------------------------------------------------------------------------------


 Maximum index for augmentation-charges         8689 (set IRDMAX)


--------------------------------------------------------------------------------------------------------


 First call to EWALD:  gamma=   0.183
 Maximum number of real-space cells 6x 6x 1
 Maximum number of reciprocal cells 1x 1x14

 FEWALD executed in parallel
    FEWALD:  cpu time    0.0018: real time    0.0018


----------------------------------------- Iteration    1(   1)  ---------------------------------------


    POTLOK:  cpu time    0.5324: real time    0.5328
    SETDIJ:  cpu time    1.3863: real time    1.3961
     EDDAV:  cpu time   26.5414: real time   26.5796
       DOS:  cpu time    0.0063: real time    0.0063
    --------------------------------------------
      LOOP:  cpu time   28.4683: real time   28.5212

 eigenvalue-minimisations  : 25528
 total energy-change (2. order) : 0.7184406E+03  (-0.3100352E+04)
 number of electron     111.9999999 magnetization       0.0000000      0.0000000      0.0000464
 augmentation part      111.9999999 magnetization       0.0000000      0.0000000      0.0000464

 Free energy of the ion-electron system (eV)
  ---------------------------------------------------
  alpha Z        PSCENC =        -5.34691096
  Ewald energy   TEWEN  =     27153.41586682
  -Hartree energ DENC   =    -31037.47928817
  -exchange      EXHF   =         0.00000000
  -V(xc)+E(xc)   XCENC  =      -702.23484791
  PAW double counting   =      7605.02512480    -6712.62852372
  entropy T*S    EENTRO =        -0.00048126
  eigenvalues    EBANDS =       538.83224557
  atomic energy  EATOM  =      3878.85743220
  Solvation  Ediel_sol  =         0.00000000
  ---------------------------------------------------
  free energy    TOTEN  =       718.44061737 eV

  energy without entropy =      718.44109863  energy(sigma->0) =      718.44085800


--------------------------------------------------------------------------------------------------------




----------------------------------------- Iteration    1(   2)  ---------------------------------------


     EDDAV:  cpu time   27.7366: real time   27.7508
       DOS:  cpu time    0.0050: real time    0.0050
    --------------------------------------------
      LOOP:  cpu time   27.7421: real time   27.8279

 eigenvalue-minimisations  : 30768
 total energy-change (2. order) :-0.6291691E+03  (-0.5866098E+03)
 number of electron     111.9999999 magnetization       0.0000000      0.0000000      0.0000464
 augmentation part      111.9999999 magnetization       0.0000000      0.0000000      0.0000464

 Free energy of the ion-electron system (eV)
  ---------------------------------------------------
  alpha Z        PSCENC =        -5.34691096
  Ewald energy   TEWEN  =     27153.41586682
  -Hartree energ DENC   =    -31037.47928817
  -exchange      EXHF   =         0.00000000
  -V(xc)+E(xc)   XCENC  =      -702.23484791
  PAW double counting   =      7605.02512480    -6712.62852372
  entropy T*S    EENTRO =        -0.00076058
  eigenvalues    EBANDS =       -90.33654491
  atomic energy  EATOM  =      3878.85743220
  Solvation  Ediel_sol  =         0.00000000
  ---------------------------------------------------
  free energy    TOTEN  =        89.27154756 eV

  energy without entropy =       89.27230815  energy(sigma->0) =       89.27192786


--------------------------------------------------------------------------------------------------------




----------------------------------------- Iteration    1(   3)  ---------------------------------------


     EDDAV:  cpu time   26.8760: real time   26.8918
       DOS:  cpu time    0.0060: real time    0.0060
    --------------------------------------------
      LOOP:  cpu time   26.8831: real time   27.0754

 eigenvalue-minimisations  : 30472
 total energy-change (2. order) :-0.8604332E+02  (-0.7969804E+02)
 number of electron     111.9999999 magnetization       0.0000000      0.0000000      0.0000464
 augmentation part      111.9999999 magnetization       0.0000000      0.0000000      0.0000464

 Free energy of the ion-electron system (eV)
  ---------------------------------------------------
  alpha Z        PSCENC =        -5.34691096
  Ewald energy   TEWEN  =     27153.41586682
  -Hartree energ DENC   =    -31037.47928817
  -exchange      EXHF   =         0.00000000
  -V(xc)+E(xc)   XCENC  =      -702.23484791
  PAW double counting   =      7605.02512480    -6712.62852372
  entropy T*S    EENTRO =        -0.00014592
  eigenvalues    EBANDS =      -176.38047997
  atomic energy  EATOM  =      3878.85743220
  Solvation  Ediel_sol  =         0.00000000
  ---------------------------------------------------
  free energy    TOTEN  =         3.22822717 eV

  energy without entropy =        3.22837309  energy(sigma->0) =        3.22830013


--------------------------------------------------------------------------------------------------------




----------------------------------------- Iteration    1(   4)  ---------------------------------------


     EDDAV:  cpu time   29.6759: real time   29.6915
       DOS:  cpu time    0.0064: real time    0.0064
    --------------------------------------------
      LOOP:  cpu time   29.6830: real time   29.8732

 eigenvalue-minimisations  : 34616
 total energy-change (2. order) :-0.5542978E+01  (-0.5344638E+01)
 number of electron     111.9999999 magnetization       0.0000000      0.0000000      0.0000464
 augmentation part      111.9999999 magnetization       0.0000000      0.0000000      0.0000464

 Free energy of the ion-electron system (eV)
  ---------------------------------------------------
  alpha Z        PSCENC =        -5.34691096
  Ewald energy   TEWEN  =     27153.41586682
  -Hartree energ DENC   =    -31037.47928817
  -exchange      EXHF   =         0.00000000
  -V(xc)+E(xc)   XCENC  =      -702.23484791
  PAW double counting   =      7605.02512480    -6712.62852372
  entropy T*S    EENTRO =        -0.00023614
  eigenvalues    EBANDS =      -181.92336769
  atomic energy  EATOM  =      3878.85743220
  Solvation  Ediel_sol  =         0.00000000
  ---------------------------------------------------
  free energy    TOTEN  =        -2.31475077 eV

  energy without entropy =       -2.31451464  energy(sigma->0) =       -2.31463270


--------------------------------------------------------------------------------------------------------




----------------------------------------- Iteration    1(   5)  ---------------------------------------


     EDDAV:  cpu time   32.3165: real time   32.3334
       DOS:  cpu time    0.0063: real time    0.0063
 


 total charge     
 
# of ion     s       p       d       tot
----------------------------------------
  1        1.293   1.063   0.057   2.413
  2        1.315   1.042   0.060   2.416
  3        1.291   1.077   0.058   2.427
  4        1.291   1.078   0.058   2.426
  5        1.290   1.078   0.058   2.426
  6        1.292   1.078   0.058   2.428
  7        1.315   1.042   0.060   2.416
  8        1.293   1.063   0.057   2.412
  9        1.403   2.109   0.030   3.542
 10        1.370   2.169   0.029   3.568
 11        1.401   2.103   0.029   3.533
 12        1.403   2.114   0.030   3.546
 13        1.403   2.112   0.030   3.544
 14        1.401   2.103   0.029   3.533
 15        1.370   2.169   0.029   3.568
 16        1.403   2.108   0.030   3.541
 17        1.419   2.169   0.026   3.614
 18        1.411   2.170   0.023   3.604
 19        1.411   2.171   0.023   3.605
 20        1.419   2.169   0.026   3.614
------------------------------------------------
tot       27.193  34.186   0.799  62.178
 


 magnetization (x)
 
# of ion     s       p       d       tot
----------------------------------------
  1       -0.005   0.012  -0.000   0.007
  2       -0.005  -0.006  -0.001  -0.011
  3        0.006  -0.004   0.001   0.002
  4       -0.005   0.007  -0.001   0.001
  5        0.005  -0.007   0.001  -0.001
  6       -0.006   0.004  -0.001  -0.002
  7        0.005   0.006   0.001   0.011
  8        0.004  -0.012   0.000  -0.007
  9        0.002  -0.021  -0.000  -0.020
 10        0.003   0.015   0.000   0.018
 11       -0.002   0.014   0.000   0.012
 12        0.001  -0.023  -0.000  -0.022
 13       -0.001   0.023   0.000   0.022
 14        0.003  -0.015  -0.000  -0.012
 15       -0.003  -0.015  -0.000  -0.018
 16       -0.001   0.021   0.000   0.020
 17       -0.001  -0.000  -0.000  -0.001
 18        0.005   0.005   0.000   0.010
 19       -0.005  -0.005  -0.000  -0.010
 20        0.001   0.000   0.000   0.001
------------------------------------------------
tot       -0.000   0.000  -0.000   0.000
 


 magnetization (y)
 
# of ion     s       p       d       tot
----------------------------------------
  1        0.004  -0.012   0.000  -0.008
  2        0.004   0.006   0.001   0.011
  3       -0.006   0.004  -0.001  -0.003
  4        0.005  -0.007   0.001  -0.001
  5       -0.005   0.007  -0.001   0.001
  6        0.006  -0.004   0.001   0.003
  7       -0.004  -0.006  -0.001  -0.011
  8       -0.004   0.012  -0.000   0.007
  9       -0.002   0.021   0.000   0.020
 10       -0.003  -0.014  -0.000  -0.018
 11        0.003  -0.015  -0.000  -0.012
 12       -0.001   0.023   0.000   0.023
 13        0.001  -0.023  -0.000  -0.022
 14       -0.003   0.015   0.000   0.012
 15        0.003   0.014   0.000   0.018
 16        0.002  -0.021  -0.000  -0.020
 17        0.001   0.000   0.000   0.001
 18       -0.005  -0.005  -0.000  -0.011
 19        0.005   0.006   0.000   0.011
 20       -0.001  -0.001  -0.000  -0.001
------------------------------------------------
tot       -0.000  -0.000  -0.000  -0.000
 


 magnetization (z)
 
# of ion     s       p       d       tot
----------------------------------------
  1        0.001  -0.002  -0.000  -0.000
  2        0.002   0.004  -0.000   0.006
  3       -0.002   0.000   0.000  -0.001
  4        0.002  -0.001  -0.000   0.001
  5       -0.002   0.001   0.000  -0.001
  6        0.002  -0.000  -0.000   0.001
  7       -0.002  -0.004   0.000  -0.006
  8       -0.001   0.002   0.000   0.000
  9       -0.001   0.003   0.000   0.002
 10       -0.001  -0.003  -0.000  -0.004
 11        0.001   0.000  -0.000   0.001
 12       -0.001   0.003   0.000   0.003
 13        0.001  -0.003  -0.000  -0.003
 14       -0.001  -0.000   0.000  -0.001
 15        0.001   0.003   0.000   0.004
 16        0.001  -0.003  -0.000  -0.002
 17        0.000   0.000   0.000   0.000
 18       -0.000  -0.001  -0.000  -0.002
 19        0.000   0.001   0.000   0.002
 20        0.000  -0.000  -0.000  -0.000
------------------------------------------------
tot       -0.000   0.000  -0.000   0.000
 
    --------------------------------------------
      LOOP:  cpu time   32.3298: real time   32.4139

 eigenvalue-minimisations  : 39010
 total energy-change (2. order) :-0.2510014E+00  (-0.2475983E+00)
 number of electron     111.9999999 magnetization       0.0000000      0.0000000      0.0000464
 augmentation part      111.9999999 magnetization       0.0000000      0.0000000      0.0000464

 Free energy of the ion-electron system (eV)
  ---------------------------------------------------
  alpha Z        PSCENC =        -5.34691096
  Ewald energy   TEWEN  =     27153.41586682
  -Hartree energ DENC   =    -31037.47928817
  -exchange      EXHF   =         0.00000000
  -V(xc)+E(xc)   XCENC  =      -702.23484791
  PAW double counting   =      7605.02512480    -6712.62852372
  entropy T*S    EENTRO =        -0.00030070
  eigenvalues    EBANDS =      -182.17430455
  atomic energy  EATOM  =      3878.85743220
  Solvation  Ediel_sol  =         0.00000000
  ---------------------------------------------------
  free energy    TOTEN  =        -2.56575220 eV

  energy without entropy =       -2.56545150  energy(sigma->0) =       -2.56560185


--------------------------------------------------------------------------------------------------------




----------------------------------------- Iteration    1(   6)  ---------------------------------------


     EDDAV:  cpu time   29.8586: real time   29.8736
       DOS:  cpu time    0.0065: real time    0.0065
    --------------------------------------------
      LOOP:  cpu time   29.8657: real time   29.9481

 eigenvalue-minimisations  : 35016
 total energy-change (2. order) :-0.1016033E-01  (-0.1013090E-01)
 number of electron     111.9999999 magnetization       0.0000000      0.0000000      0.0000464
 augmentation part      111.9999999 magnetization       0.0000000      0.0000000      0.0000464

 Free energy of the ion-electron system (eV)
  ---------------------------------------------------
  alpha Z        PSCENC =        -5.34691096
  Ewald energy   TEWEN  =     27153.41586682
  -Hartree energ DENC   =    -31037.47928817
  -exchange      EXHF   =         0.00000000
  -V(xc)+E(xc)   XCENC  =      -702.23484791
  PAW double counting   =      7605.02512480    -6712.62852372
  entropy T*S    EENTRO =        -0.00029781
  eigenvalues    EBANDS =      -182.18446777
  atomic energy  EATOM  =      3878.85743220
  Solvation  Ediel_sol  =         0.00000000
  ---------------------------------------------------
  free energy    TOTEN  =        -2.57591252 eV

  energy without entropy =       -2.57561471  energy(sigma->0) =       -2.57576362


--------------------------------------------------------------------------------------------------------




----------------------------------------- Iteration    1(   7)  ---------------------------------------


     EDDAV:  cpu time   32.2717: real time   32.2891
       DOS:  cpu time    0.0060: real time    0.0061
    --------------------------------------------
      LOOP:  cpu time   32.2788: real time   32.3485

 eigenvalue-minimisations  : 39142
 total energy-change (2. order) :-0.6837951E-03  (-0.6827517E-03)
 number of electron     111.9999999 magnetization       0.0000000      0.0000000      0.0000464
 augmentation part      111.9999999 magnetization       0.0000000      0.0000000      0.0000464

 Free energy of the ion-electron system (eV)
  ---------------------------------------------------
  alpha Z        PSCENC =        -5.34691096
  Ewald energy   TEWEN  =     27153.41586682
  -Hartree energ DENC   =    -31037.47928817
  -exchange      EXHF   =         0.00000000
  -V(xc)+E(xc)   XCENC  =      -702.23484791
  PAW double counting   =      7605.02512480    -6712.62852372
  entropy T*S    EENTRO =        -0.00029675
  eigenvalues    EBANDS =      -182.18515262
  atomic energy  EATOM  =      3878.85743220
  Solvation  Ediel_sol  =         0.00000000
  ---------------------------------------------------
  free energy    TOTEN  =        -2.57659632 eV

  energy without entropy =       -2.57629957  energy(sigma->0) =       -2.57644794


--------------------------------------------------------------------------------------------------------




----------------------------------------- Iteration    1(   8)  ---------------------------------------


     EDDAV:  cpu time   27.5585: real time   27.5732
       DOS:  cpu time    0.0062: real time    0.0062
    --------------------------------------------
      LOOP:  cpu time   27.5652: real time   27.6061

 eigenvalue-minimisations  : 31430
 total energy-change (2. order) :-0.4664864E-04  (-0.4659020E-04)
 number of electron     111.9999999 magnetization       0.0000000      0.0000000      0.0000464
 augmentation part      111.9999999 magnetization       0.0000000      0.0000000      0.0000464

 Free energy of the ion-electron system (eV)
  ---------------------------------------------------
  alpha Z        PSCENC =        -5.34691096
  Ewald energy   TEWEN  =     27153.41586682
  -Hartree energ DENC   =    -31037.47928817
  -exchange      EXHF   =         0.00000000
  -V(xc)+E(xc)   XCENC  =      -702.23484791
  PAW double counting   =      7605.02512480    -6712.62852372
  entropy T*S    EENTRO =        -0.00029668
  eigenvalues    EBANDS =      -182.18519934
  atomic energy  EATOM  =      3878.85743220
  Solvation  Ediel_sol  =         0.00000000
  ---------------------------------------------------
  free energy    TOTEN  =        -2.57664297 eV

  energy without entropy =       -2.57634629  energy(sigma->0) =       -2.57649463


--------------------------------------------------------------------------------------------------------




----------------------------------------- Iteration    1(   9)  ---------------------------------------


     EDDAV:  cpu time   23.6411: real time   23.6563
       DOS:  cpu time    0.0062: real time    0.0062
    --------------------------------------------
      LOOP:  cpu time   23.6485: real time   23.7001

 eigenvalue-minimisations  : 25504
 total energy-change (2. order) :-0.4112528E-05  (-0.4109932E-05)
 number of electron     111.9999999 magnetization       0.0000000      0.0000000      0.0000464
 augmentation part      111.9999999 magnetization       0.0000000      0.0000000      0.0000464

 Free energy of the ion-electron system (eV)
  ---------------------------------------------------
  alpha Z        PSCENC =        -5.34691096
  Ewald energy   TEWEN  =     27153.41586682
  -Hartree energ DENC   =    -31037.47928817
  -exchange      EXHF   =         0.00000000
  -V(xc)+E(xc)   XCENC  =      -702.23484791
  PAW double counting   =      7605.02512480    -6712.62852372
  entropy T*S    EENTRO =        -0.00029667
  eigenvalues    EBANDS =      -182.18520347
  atomic energy  EATOM  =      3878.85743220
  Solvation  Ediel_sol  =         0.00000000
  ---------------------------------------------------
  free energy    TOTEN  =        -2.57664708 eV

  energy without entropy =       -2.57635041  energy(sigma->0) =       -2.57649875


--------------------------------------------------------------------------------------------------------




----------------------------------------- Iteration    1(  10)  ---------------------------------------


     EDDAV:  cpu time   20.0761: real time   20.0868
       DOS:  cpu time    0.0062: real time    0.0062
 


 total charge     
 
# of ion     s       p       d       tot
----------------------------------------
  1        1.293   1.062   0.057   2.412
  2        1.315   1.042   0.060   2.416
  3        1.291   1.077   0.058   2.426
  4        1.291   1.078   0.058   2.426
  5        1.290   1.078   0.058   2.426
  6        1.292   1.078   0.058   2.427
  7        1.315   1.042   0.060   2.416
  8        1.293   1.062   0.057   2.412
  9        1.401   2.109   0.030   3.540
 10        1.368   2.169   0.029   3.566
 11        1.398   2.103   0.029   3.530
 12        1.400   2.114   0.030   3.544
 13        1.400   2.112   0.030   3.542
 14        1.398   2.103   0.029   3.531
 15        1.368   2.169   0.029   3.566
 16        1.400   2.108   0.030   3.539
 17        1.417   2.170   0.026   3.612
 18        1.408   2.171   0.023   3.602
 19        1.408   2.171   0.023   3.603
 20        1.417   2.170   0.026   3.612
------------------------------------------------
tot       27.161  34.189   0.798  62.148
 


 magnetization (x)
 
# of ion     s       p       d       tot
----------------------------------------
  1       -0.004   0.012  -0.000   0.007
  2       -0.005  -0.006  -0.001  -0.011
  3        0.006  -0.004   0.001   0.002
  4       -0.005   0.007  -0.001   0.001
  5        0.005  -0.007   0.001  -0.001
  6       -0.006   0.004  -0.001  -0.002
  7        0.005   0.006   0.001   0.011
  8        0.004  -0.012   0.000  -0.007
  9        0.001  -0.021  -0.000  -0.020
 10        0.003   0.015   0.000   0.018
 11       -0.002   0.014   0.000   0.012
 12        0.001  -0.023  -0.000  -0.022
 13       -0.001   0.023   0.000   0.022
 14        0.002  -0.015  -0.000  -0.012
 15       -0.003  -0.015  -0.000  -0.018
 16       -0.002   0.021   0.000   0.020
 17       -0.001  -0.000  -0.000  -0.001
 18        0.005   0.005   0.000   0.010
 19       -0.005  -0.005  -0.000  -0.010
 20        0.000   0.001   0.000   0.001
------------------------------------------------
tot       -0.000   0.000  -0.000   0.000
 


 magnetization (y)
 
# of ion     s       p       d       tot
----------------------------------------
  1        0.004  -0.012   0.000  -0.008
  2        0.004   0.006   0.001   0.011
  3       -0.006   0.004  -0.001  -0.003
  4        0.005  -0.007   0.001  -0.001
  5       -0.005   0.007  -0.001   0.001
  6        0.006  -0.004   0.001   0.003
  7       -0.004  -0.006  -0.001  -0.011
  8       -0.004   0.012  -0.000   0.007
  9       -0.002   0.021   0.000   0.020
 10       -0.003  -0.014  -0.000  -0.018
 11        0.003  -0.015  -0.000  -0.012
 12       -0.001   0.023   0.000   0.023
 13        0.001  -0.023  -0.000  -0.022
 14       -0.003   0.015   0.000   0.012
 15        0.003   0.014   0.000   0.018
 16        0.002  -0.021  -0.000  -0.020
 17        0.001   0.001   0.000   0.001
 18       -0.005  -0.005  -0.000  -0.011
 19        0.005   0.005   0.000   0.010
 20       -0.001  -0.001  -0.000  -0.001
------------------------------------------------
tot        0.000  -0.000  -0.000  -0.000
 


 magnetization (z)
 
# of ion     s       p       d       tot
----------------------------------------
  1        0.001  -0.002  -0.000  -0.000
  2        0.002   0.004  -0.000   0.006
  3       -0.002   0.000   0.000  -0.001
  4        0.002  -0.001  -0.000   0.001
  5       -0.002   0.001   0.000  -0.001
  6        0.002  -0.000  -0.000   0.001
  7       -0.002  -0.004   0.000  -0.006
  8       -0.001   0.002   0.000   0.000
  9       -0.001   0.003   0.000   0.002
 10       -0.001  -0.003  -0.000  -0.004
 11        0.001   0.000  -0.000   0.001
 12       -0.001   0.003   0.000   0.003
 13        0.001  -0.003  -0.000  -0.003
 14       -0.001  -0.000   0.000  -0.001
 15        0.001   0.003   0.000   0.004
 16        0.001  -0.003  -0.000  -0.002
 17       -0.000   0.000   0.000   0.000
 18       -0.000  -0.001  -0.000  -0.002
 19        0.000   0.001   0.000   0.002
 20        0.000  -0.000  -0.000  -0.000
------------------------------------------------
tot        0.000  -0.000  -0.000  -0.000
 
    --------------------------------------------
      LOOP:  cpu time   20.0890: real time   20.1079

 eigenvalue-minimisations  : 19006
 total energy-change (2. order) :-0.3794194E-06  (-0.3788383E-06)
 number of electron     111.9999999 magnetization       0.0000000      0.0000000      0.0000464
 augmentation part      111.9999999 magnetization       0.0000000      0.0000000      0.0000464

 Free energy of the ion-electron system (eV)
  ---------------------------------------------------
  alpha Z        PSCENC =        -5.34691096
  Ewald energy   TEWEN  =     27153.41586682
  -Hartree energ DENC   =    -31037.47928817
  -exchange      EXHF   =         0.00000000
  -V(xc)+E(xc)   XCENC  =      -702.23484791
  PAW double counting   =      7605.02512480    -6712.62852372
  entropy T*S    EENTRO =        -0.00029667
  eigenvalues    EBANDS =      -182.18520385
  atomic energy  EATOM  =      3878.85743220
  Solvation  Ediel_sol  =         0.00000000
  ---------------------------------------------------
  free energy    TOTEN  =        -2.57664746 eV

  energy without entropy =       -2.57635079  energy(sigma->0) =       -2.57649913


--------------------------------------------------------------------------------------------------------




 average (electrostatic) potential at core
  the test charge radii are     1.1712  1.1897
  (the norm of the test charge is              1.0000)
       1 -90.2257       2 -90.2501       3 -90.2244       4 -90.2249       5 -90.2249
       6 -90.2276       7 -90.2496       8 -90.2244       9 -91.3866      10 -91.3065
      11 -91.3772      12 -91.3902      13 -91.3849      14 -91.3781      15 -91.3077
      16 -91.3851      17 -91.2662      18 -91.2484      19 -91.2493      20 -91.2655
 
 
 
 E-fermi :   3.2811     XC(G=0):  -6.7578     alpha+bet : -7.8793


 k-point     1 :       0.0833    0.0833    0.0000
  band No.  band energies     occupation 
      1      -9.7898      1.00000
      2      -9.7898      1.00000
      3      -9.7569      1.00000
      4      -9.7569      1.00000
      5      -9.7162      1.00000
      6      -9.7162      1.00000
      7      -9.6920      1.00000
      8      -9.6920      1.00000
      9      -9.2837      1.00000
     10      -9.2837      1.00000
     11      -9.1953      1.00000
     12      -9.1953      1.00000
     13      -9.0994      1.00000
     14      -9.0994      1.00000
     15      -9.0343      1.00000
     16      -9.0343      1.00000
     17      -8.2625      1.00000
     18      -8.2625      1.00000
     19      -8.1625      1.00000
     20      -8.1625      1.00000
     21      -8.0623      1.00000
     22      -8.0623      1.00000
     23      -7.9993      1.00000
     24      -7.9992      1.00000
     25      -5.6194      1.00000
     26      -5.6194      1.00000
     27      -5.4977      1.00000
     28      -5.4976      1.00000
     29      -5.3483      1.00000
     30      -5.3483      1.00000
     31      -5.2320      1.00000
     32      -5.2320      1.00000
     33      -4.2506      1.00000
     34      -4.2506      1.00000
     35      -4.1249      1.00000
     36      -4.1249      1.00000
     37      -3.9992      1.00000
     38      -3.9992      1.00000
     39      -3.9146      1.00000
     40      -3.9145      1.00000
     41      -0.1581      1.00000
     42      -0.1569      1.00000
     43      -0.1548      1.00000
     44      -0.1533      1.00000
     45      -0.1465      1.00000
     46      -0.1454      1.00000
     47      -0.0783      1.00000
     48      -0.0778      1.00000
     49      -0.0538      1.00000
     50      -0.0533      1.00000
     51      -0.0171      1.00000
     52      -0.0170      1.00000
     53       0.0171      1.00000
     54       0.0175      1.00000
     55       0.2192      1.00000
     56       0.2200      1.00000
     57       0.2757      1.00000
     58       0.2764      1.00000
     59       0.3397      1.00000
     60       0.3401      1.00000
     61       0.4036      1.00000
     62       0.4047      1.00000
     63       0.4583      1.00000
     64       0.4593      1.00000
     65       0.8376      1.00000
     66       0.8377      1.00000
     67       0.9277      1.00000
     68       0.9287      1.00000
     69       0.9319      1.00000
     70       0.9324      1.00000
     71       0.9508      1.00000
     72       0.9512      1.00000
     73       1.1953      1.00000
     74       1.1963      1.00000
     75       1.2790      1.00000
     76       1.2794      1.00000
     77       1.2821      1.00000
     78       1.2844      1.00000
     79       1.3089      1.00000
     80       1.3094      1.00000
     81       1.3955      1.00000
     82       1.3967      1.00000
     83       1.4814      1.00000
     84       1.4825      1.00000
     85       1.5758      1.00000
     86       1.5760      1.00000
     87       1.6516      1.00000
     88       1.6521      1.00000
     89       1.7463      1.00000
     90       1.7472      1.00000
     91       1.8108      1.00000
     92       1.8111      1.00000
     93       1.9587      1.00000
     94       1.9594      1.00000
     95       2.1636      1.00000
     96       2.1639      1.00000
     97       2.6210      1.00000
     98       2.6215      1.00000
     99       2.6786      1.00000
    100       2.6790      1.00000
    101       2.7227      1.00000
    102       2.7232      1.00000
    103       2.7393      1.00000
    104       2.7402      1.00000
    105       2.8106      1.00000
    106       2.8115      1.00000
    107       2.8730      1.00000
    108       2.8733      1.00000
    109       2.8926      1.00000
    110       2.8929      1.00000
    111       2.9241      1.00000
    112       2.9242      1.00000
    113       3.7311      0.00000
    114       3.7321      0.00000
    115       3.7893      0.00000
    116       3.7898      0.00000
    117       3.9115      0.00000
    118       3.9120      0.00000
    119       4.0876      0.00000
    120       4.0886      0.00000
    121       4.2131      0.00000
    122       4.2140      0.00000
    123       4.2370      0.00000
    124       4.2378      0.00000
    125       4.2948      0.00000
    126       4.2953      0.00000
    127       4.3349      0.00000
    128       4.3360      0.00000
    129       4.4535      0.00000
    130       4.4541      0.00000
    131       4.6169      0.00000
    132       4.6172      0.00000
    133       4.7099      0.00000
    134       4.7107      0.00000
    135       4.7191      0.00000
    136       4.7202      0.00000
    137       5.0623      0.00000
    138       5.0628      0.00000
    139       5.1182      0.00000
    140       5.1187      0.00000
    141       5.1774      0.00000
    142       5.1775      0.00000
    143       5.2432      0.00000
    144       5.2439      0.00000
    145       5.5034      0.00000
    146       5.5051      0.00000
    147       5.5412      0.00000
    148       5.5427      0.00000
    149       5.6062      0.00000
    150       5.6142      0.00000
    151       5.6825      0.00000
    152       5.6979      0.00000
    153       5.9371      0.00000
    154       5.9476      0.00000

 k-point     2 :       0.0812    0.0812    0.0000
  band No.  band energies     occupation 
      1      -9.7995      1.00000
      2      -9.7995      1.00000
      3      -9.7666      1.00000
      4      -9.7666      1.00000
      5      -9.7258      1.00000
      6      -9.7258      1.00000
      7      -9.7016      1.00000
      8      -9.7016      1.00000
      9      -9.2926      1.00000
     10      -9.2926      1.00000
     11      -9.2042      1.00000
     12      -9.2042      1.00000
     13      -9.1082      1.00000
     14      -9.1082      1.00000
     15      -9.0430      1.00000
     16      -9.0430      1.00000
     17      -8.2684      1.00000
     18      -8.2684      1.00000
     19      -8.1682      1.00000
     20      -8.1682      1.00000
     21      -8.0677      1.00000
     22      -8.0677      1.00000
     23      -8.0044      1.00000
     24      -8.0044      1.00000
     25      -5.6206      1.00000
     26      -5.6206      1.00000
     27      -5.4978      1.00000
     28      -5.4978      1.00000
     29      -5.3471      1.00000
     30      -5.3471      1.00000
     31      -5.2294      1.00000
     32      -5.2294      1.00000
     33      -4.2389      1.00000
     34      -4.2389      1.00000
     35      -4.1110      1.00000
     36      -4.1109      1.00000
     37      -3.9827      1.00000
     38      -3.9826      1.00000
     39      -3.8962      1.00000
     40      -3.8961      1.00000
     41      -0.1240      1.00000
     42      -0.1232      1.00000
     43      -0.1231      1.00000
     44      -0.1206      1.00000
     45      -0.1166      1.00000
     46      -0.1162      1.00000
     47      -0.0481      1.00000
     48      -0.0476      1.00000
     49      -0.0286      1.00000
     50      -0.0279      1.00000
     51      -0.0009      1.00000
     52      -0.0007      1.00000
     53       0.0240      1.00000
     54       0.0245      1.00000
     55       0.2426      1.00000
     56       0.2434      1.00000
     57       0.3122      1.00000
     58       0.3129      1.00000
     59       0.3764      1.00000
     60       0.3767      1.00000
     61       0.4429      1.00000
     62       0.4440      1.00000
     63       0.4960      1.00000
     64       0.4969      1.00000
     65       0.8574      1.00000
     66       0.8574      1.00000
     67       0.9426      1.00000
     68       0.9435      1.00000
     69       0.9467      1.00000
     70       0.9474      1.00000
     71       0.9636      1.00000
     72       0.9640      1.00000
     73       1.2103      1.00000
     74       1.2113      1.00000
     75       1.2980      1.00000
     76       1.2991      1.00000
     77       1.3081      1.00000
     78       1.3102      1.00000
     79       1.3329      1.00000
     80       1.3335      1.00000
     81       1.4100      1.00000
     82       1.4113      1.00000
     83       1.4935      1.00000
     84       1.4947      1.00000
     85       1.5872      1.00000
     86       1.5874      1.00000
     87       1.6618      1.00000
     88       1.6623      1.00000
     89       1.7656      1.00000
     90       1.7664      1.00000
     91       1.8229      1.00000
     92       1.8233      1.00000
     93       1.9592      1.00000
     94       1.9599      1.00000
     95       2.1579      1.00000
     96       2.1581      1.00000
     97       2.6369      1.00000
     98       2.6374      1.00000
     99       2.6898      1.00000
    100       2.6902      1.00000
    101       2.7029      1.00000
    102       2.7036      1.00000
    103       2.7438      1.00000
    104       2.7445      1.00000
    105       2.8091      1.00000
    106       2.8100      1.00000
    107       2.8714      1.00000
    108       2.8718      1.00000
    109       2.9036      1.00000
    110       2.9038      1.00000
    111       2.9289      1.00000
    112       2.9290      1.00000
    113       3.7332      0.00000
    114       3.7343      0.00000
    115       3.7883      0.00000
    116       3.7888      0.00000
    117       3.9008      0.00000
    118       3.9014      0.00000
    119       4.0697      0.00000
    120       4.0708      0.00000
    121       4.2114      0.00000
    122       4.2123      0.00000
    123       4.2272      0.00000
    124       4.2280      0.00000
    125       4.2748      0.00000
    126       4.2754      0.00000
    127       4.3050      0.00000
    128       4.3061      0.00000
    129       4.4352      0.00000
    130       4.4358      0.00000
    131       4.5868      0.00000
    132       4.5872      0.00000
    133       4.6954      0.00000
    134       4.6957      0.00000
    135       4.7073      0.00000
    136       4.7086      0.00000
    137       5.0499      0.00000
    138       5.0504      0.00000
    139       5.1061      0.00000
    140       5.1066      0.00000
    141       5.1654      0.00000
    142       5.1655      0.00000
    143       5.2272      0.00000
    144       5.2279      0.00000
    145       5.4637      0.00000
    146       5.4656      0.00000
    147       5.5114      0.00000
    148       5.5170      0.00000
    149       5.5845      0.00000
    150       5.5900      0.00000
    151       5.6610      0.00000
    152       5.7505      0.00000
    153       5.9063      0.00000
    154       5.9330      0.00000

 k-point     3 :       0.0791    0.0791    0.0000
  band No.  band energies     occupation 
      1      -9.8089      1.00000
      2      -9.8089      1.00000
      3      -9.7760      1.00000
      4      -9.7760      1.00000
      5      -9.7352      1.00000
      6      -9.7352      1.00000
      7      -9.7110      1.00000
      8      -9.7110      1.00000
      9      -9.3013      1.00000
     10      -9.3013      1.00000
     11      -9.2128      1.00000
     12      -9.2128      1.00000
     13      -9.1168      1.00000
     14      -9.1168      1.00000
     15      -9.0515      1.00000
     16      -9.0515      1.00000
     17      -8.2742      1.00000
     18      -8.2742      1.00000
     19      -8.1738      1.00000
     20      -8.1738      1.00000
     21      -8.0730      1.00000
     22      -8.0730      1.00000
     23      -8.0094      1.00000
     24      -8.0094      1.00000
     25      -5.6219      1.00000
     26      -5.6218      1.00000
     27      -5.4981      1.00000
     28      -5.4981      1.00000
     29      -5.3459      1.00000
     30      -5.3459      1.00000
     31      -5.2270      1.00000
     32      -5.2270      1.00000
     33      -4.2276      1.00000
     34      -4.2276      1.00000
     35      -4.0974      1.00000
     36      -4.0974      1.00000
     37      -3.9666      1.00000
     38      -3.9665      1.00000
     39      -3.8781      1.00000
     40      -3.8780      1.00000
     41      -0.0969      1.00000
     42      -0.0955      1.00000
     43      -0.0917      1.00000
     44      -0.0897      1.00000
     45      -0.0845      1.00000
     46      -0.0841      1.00000
     47      -0.0188      1.00000
     48      -0.0183      1.00000
     49      -0.0022      1.00000
     50      -0.0015      1.00000
     51       0.0179      1.00000
     52       0.0180      1.00000
     53       0.0336      1.00000
     54       0.0341      1.00000
     55       0.2636      1.00000
     56       0.2645      1.00000
     57       0.3497      1.00000
     58       0.3504      1.00000
     59       0.4136      1.00000
     60       0.4138      1.00000
     61       0.4823      1.00000
     62       0.4834      1.00000
     63       0.5352      1.00000
     64       0.5360      1.00000
     65       0.8777      1.00000
     66       0.8777      1.00000
     67       0.9560      1.00000
     68       0.9568      1.00000
     69       0.9614      1.00000
     70       0.9621      1.00000
     71       0.9770      1.00000
     72       0.9774      1.00000
     73       1.2250      1.00000
     74       1.2260      1.00000
     75       1.3153      1.00000
     76       1.3165      1.00000
     77       1.3331      1.00000
     78       1.3356      1.00000
     79       1.3563      1.00000
     80       1.3570      1.00000
     81       1.4255      1.00000
     82       1.4270      1.00000
     83       1.5058      1.00000
     84       1.5071      1.00000
     85       1.5983      1.00000
     86       1.5985      1.00000
     87       1.6715      1.00000
     88       1.6720      1.00000
     89       1.7846      1.00000
     90       1.7853      1.00000
     91       1.8356      1.00000
     92       1.8360      1.00000
     93       1.9602      1.00000
     94       1.9609      1.00000
     95       2.1520      1.00000
     96       2.1523      1.00000
     97       2.6527      1.00000
     98       2.6532      1.00000
     99       2.6807      1.00000
    100       2.6813      1.00000
    101       2.7013      1.00000
    102       2.7018      1.00000
    103       2.7471      1.00000
    104       2.7478      1.00000
    105       2.8085      1.00000
    106       2.8094      1.00000
    107       2.8671      1.00000
    108       2.8676      1.00000
    109       2.9178      1.00000
    110       2.9180      1.00000
    111       2.9324      1.00000
    112       2.9326      1.00000
    113       3.7350      0.00000
    114       3.7361      0.00000
    115       3.7876      0.00000
    116       3.7882      0.00000
    117       3.8907      0.00000
    118       3.8913      0.00000
    119       4.0506      0.00000
    120       4.0518      0.00000
    121       4.2091      0.00000
    122       4.2099      0.00000
    123       4.2170      0.00000
    124       4.2178      0.00000
    125       4.2497      0.00000
    126       4.2502      0.00000
    127       4.2813      0.00000
    128       4.2822      0.00000
    129       4.4194      0.00000
    130       4.4200      0.00000
    131       4.5566      0.00000
    132       4.5570      0.00000
    133       4.6735      0.00000
    134       4.6738      0.00000
    135       4.6991      0.00000
    136       4.7004      0.00000
    137       5.0376      0.00000
    138       5.0380      0.00000
    139       5.0933      0.00000
    140       5.0939      0.00000
    141       5.1523      0.00000
    142       5.1525      0.00000
    143       5.2102      0.00000
    144       5.2108      0.00000
    145       5.4269      0.00000
    146       5.4274      0.00000
    147       5.4836      0.00000
    148       5.4857      0.00000
    149       5.5626      0.00000
    150       5.5695      0.00000
    151       5.6385      0.00000
    152       5.6481      0.00000
    153       5.8987      0.00000
    154       5.9131      0.00000

 k-point     4 :       0.0769    0.0769    0.0000
  band No.  band energies     occupation 
      1      -9.8181      1.00000
      2      -9.8181      1.00000
      3      -9.7852      1.00000
      4      -9.7852      1.00000
      5      -9.7444      1.00000
      6      -9.7444      1.00000
      7      -9.7202      1.00000
      8      -9.7202      1.00000
      9      -9.3098      1.00000
     10      -9.3098      1.00000
     11      -9.2213      1.00000
     12      -9.2212      1.00000
     13      -9.1251      1.00000
     14      -9.1251      1.00000
     15      -9.0598      1.00000
     16      -9.0598      1.00000
     17      -8.2799      1.00000
     18      -8.2799      1.00000
     19      -8.1792      1.00000
     20      -8.1792      1.00000
     21      -8.0782      1.00000
     22      -8.0782      1.00000
     23      -8.0144      1.00000
[...]

 Ion:    9  E_soc:     -0.2541425
 l=   1
     0.0000000    -0.0418040    -0.0420716
    -0.0418040     0.0000000    -0.0430897
    -0.0420716    -0.0430897     0.0000000
 l=   2
     0.0000000    -0.0000152     0.0000000    -0.0000147    -0.0000319
    -0.0000152     0.0000000    -0.0000161     0.0000180    -0.0000155
     0.0000000    -0.0000161     0.0000000    -0.0000163     0.0000000
    -0.0000147     0.0000180    -0.0000163     0.0000000    -0.0000141
    -0.0000319    -0.0000155     0.0000000    -0.0000141     0.0000000
 l=   3
     0.0000000     0.0000000     0.0000000     0.0000000     0.0000000     0.0000000     0.0000000
     0.0000000     0.0000000     0.0000000     0.0000000     0.0000000     0.0000000     0.0000000
     0.0000000     0.0000000     0.0000000     0.0000000     0.0000000     0.0000000     0.0000000
     0.0000000     0.0000000     0.0000000     0.0000000     0.0000000     0.0000000     0.0000000
     0.0000000     0.0000000     0.0000000     0.0000000     0.0000000     0.0000000     0.0000000
     0.0000000     0.0000000     0.0000000     0.0000000     0.0000000     0.0000000     0.0000000
     0.0000000     0.0000000     0.0000000     0.0000000     0.0000000     0.0000000     0.0000000

 Ion:   10  E_soc:     -0.2442689
 l=   1
     0.0000000    -0.0398784    -0.0413042
    -0.0398784     0.0000000    -0.0408429
    -0.0413042    -0.0408429     0.0000000
 l=   2
     0.0000000    -0.0000147     0.0000000    -0.0000138    -0.0000678
    -0.0000147     0.0000000    -0.0000047     0.0000316    -0.0000161
     0.0000000    -0.0000047     0.0000000    -0.0000062     0.0000000
    -0.0000138     0.0000316    -0.0000062     0.0000000    -0.0000171
    -0.0000678    -0.0000161     0.0000000    -0.0000171     0.0000000
 l=   3
     0.0000000     0.0000000     0.0000000     0.0000000     0.0000000     0.0000000     0.0000000
     0.0000000     0.0000000     0.0000000     0.0000000     0.0000000     0.0000000     0.0000000
     0.0000000     0.0000000     0.0000000     0.0000000     0.0000000     0.0000000     0.0000000
     0.0000000     0.0000000     0.0000000     0.0000000     0.0000000     0.0000000     0.0000000
     0.0000000     0.0000000     0.0000000     0.0000000     0.0000000     0.0000000     0.0000000
     0.0000000     0.0000000     0.0000000     0.0000000     0.0000000     0.0000000     0.0000000
     0.0000000     0.0000000     0.0000000     0.0000000     0.0000000     0.0000000     0.0000000

 Ion:   11  E_soc:     -0.2441716
 l=   1
     0.0000000    -0.0399352    -0.0407631
    -0.0399352     0.0000000    -0.0412547
    -0.0407631    -0.0412547     0.0000000
 l=   2
     0.0000000    -0.0000150     0.0000000    -0.0000151    -0.0000478
    -0.0000150     0.0000000    -0.0000225     0.0000188    -0.0000157
     0.0000000    -0.0000225     0.0000000    -0.0000217     0.0000000
    -0.0000151     0.0000188    -0.0000217     0.0000000    -0.0000137
    -0.0000478    -0.0000157     0.0000000    -0.0000137     0.0000000
 l=   3
     0.0000000     0.0000000     0.0000000     0.0000000     0.0000000     0.0000000     0.0000000
     0.0000000     0.0000000     0.0000000     0.0000000     0.0000000     0.0000000     0.0000000
     0.0000000     0.0000000     0.0000000     0.0000000     0.0000000     0.0000000     0.0000000
     0.0000000     0.0000000     0.0000000     0.0000000     0.0000000     0.0000000     0.0000000
     0.0000000     0.0000000     0.0000000     0.0000000     0.0000000     0.0000000     0.0000000
     0.0000000     0.0000000     0.0000000     0.0000000     0.0000000     0.0000000     0.0000000
     0.0000000     0.0000000     0.0000000     0.0000000     0.0000000     0.0000000     0.0000000

 Ion:   12  E_soc:     -0.2559244
 l=   1
     0.0000000    -0.0422116    -0.0422209
    -0.0422116     0.0000000    -0.0434257
    -0.0422209    -0.0434257     0.0000000
 l=   2
     0.0000000    -0.0000152     0.0000000    -0.0000145    -0.0000318
    -0.0000152     0.0000000    -0.0000153     0.0000182    -0.0000153
     0.0000000    -0.0000153     0.0000000    -0.0000160     0.0000000
    -0.0000145     0.0000182    -0.0000160     0.0000000    -0.0000142
    -0.0000318    -0.0000153     0.0000000    -0.0000142     0.0000000
 l=   3
     0.0000000     0.0000000     0.0000000     0.0000000     0.0000000     0.0000000     0.0000000
     0.0000000     0.0000000     0.0000000     0.0000000     0.0000000     0.0000000     0.0000000
     0.0000000     0.0000000     0.0000000     0.0000000     0.0000000     0.0000000     0.0000000
     0.0000000     0.0000000     0.0000000     0.0000000     0.0000000     0.0000000     0.0000000
     0.0000000     0.0000000     0.0000000     0.0000000     0.0000000     0.0000000     0.0000000
     0.0000000     0.0000000     0.0000000     0.0000000     0.0000000     0.0000000     0.0000000
     0.0000000     0.0000000     0.0000000     0.0000000     0.0000000     0.0000000     0.0000000

 Ion:   13  E_soc:     -0.2556258
 l=   1
     0.0000000    -0.0421240    -0.0422377
    -0.0421240     0.0000000    -0.0433444
    -0.0422377    -0.0433444     0.0000000
 l=   2
     0.0000000    -0.0000151     0.0000000    -0.0000145    -0.0000330
    -0.0000151     0.0000000    -0.0000163     0.0000184    -0.0000152
     0.0000000    -0.0000163     0.0000000    -0.0000170     0.0000000
    -0.0000145     0.0000184    -0.0000170     0.0000000    -0.0000141
    -0.0000330    -0.0000152     0.0000000    -0.0000141     0.0000000
 l=   3
     0.0000000     0.0000000     0.0000000     0.0000000     0.0000000     0.0000000     0.0000000
     0.0000000     0.0000000     0.0000000     0.0000000     0.0000000     0.0000000     0.0000000
     0.0000000     0.0000000     0.0000000     0.0000000     0.0000000     0.0000000     0.0000000
     0.0000000     0.0000000     0.0000000     0.0000000     0.0000000     0.0000000     0.0000000
     0.0000000     0.0000000     0.0000000     0.0000000     0.0000000     0.0000000     0.0000000
     0.0000000     0.0000000     0.0000000     0.0000000     0.0000000     0.0000000     0.0000000
     0.0000000     0.0000000     0.0000000     0.0000000     0.0000000     0.0000000     0.0000000

 Ion:   14  E_soc:     -0.2442053
 l=   1
     0.0000000    -0.0399829    -0.0406884
    -0.0399829     0.0000000    -0.0412984
    -0.0406884    -0.0412984     0.0000000
 l=   2
     0.0000000    -0.0000151     0.0000000    -0.0000152    -0.0000480
    -0.0000151     0.0000000    -0.0000224     0.0000188    -0.0000158
     0.0000000    -0.0000224     0.0000000    -0.0000216     0.0000000
    -0.0000152     0.0000188    -0.0000216     0.0000000    -0.0000138
    -0.0000480    -0.0000158     0.0000000    -0.0000138     0.0000000
 l=   3
     0.0000000     0.0000000     0.0000000     0.0000000     0.0000000     0.0000000     0.0000000
     0.0000000     0.0000000     0.0000000     0.0000000     0.0000000     0.0000000     0.0000000
     0.0000000     0.0000000     0.0000000     0.0000000     0.0000000     0.0000000     0.0000000
     0.0000000     0.0000000     0.0000000     0.0000000     0.0000000     0.0000000     0.0000000
     0.0000000     0.0000000     0.0000000     0.0000000     0.0000000     0.0000000     0.0000000
     0.0000000     0.0000000     0.0000000     0.0000000     0.0000000     0.0000000     0.0000000
     0.0000000     0.0000000     0.0000000     0.0000000     0.0000000     0.0000000     0.0000000

 Ion:   15  E_soc:     -0.2445385
 l=   1
     0.0000000    -0.0399290    -0.0413381
    -0.0399290     0.0000000    -0.0408941
    -0.0413381    -0.0408941     0.0000000
 l=   2
     0.0000000    -0.0000147     0.0000000    -0.0000138    -0.0000673
    -0.0000147     0.0000000    -0.0000044     0.0000316    -0.0000161
     0.0000000    -0.0000044     0.0000000    -0.0000060     0.0000000
    -0.0000138     0.0000316    -0.0000060     0.0000000    -0.0000171
    -0.0000673    -0.0000161     0.0000000    -0.0000171     0.0000000
 l=   3
     0.0000000     0.0000000     0.0000000     0.0000000     0.0000000     0.0000000     0.0000000
     0.0000000     0.0000000     0.0000000     0.0000000     0.0000000     0.0000000     0.0000000
     0.0000000     0.0000000     0.0000000     0.0000000     0.0000000     0.0000000     0.0000000
     0.0000000     0.0000000     0.0000000     0.0000000     0.0000000     0.0000000     0.0000000
     0.0000000     0.0000000     0.0000000     0.0000000     0.0000000     0.0000000     0.0000000
     0.0000000     0.0000000     0.0000000     0.0000000     0.0000000     0.0000000     0.0000000
     0.0000000     0.0000000     0.0000000     0.0000000     0.0000000     0.0000000     0.0000000

 Ion:   16  E_soc:     -0.2540494
 l=   1
     0.0000000    -0.0417503    -0.0421247
    -0.0417503     0.0000000    -0.0430431
    -0.0421247    -0.0430431     0.0000000
 l=   2
     0.0000000    -0.0000152     0.0000000    -0.0000147    -0.0000322
    -0.0000152     0.0000000    -0.0000164     0.0000180    -0.0000155
     0.0000000    -0.0000164     0.0000000    -0.0000166     0.0000000
    -0.0000147     0.0000180    -0.0000166     0.0000000    -0.0000141
    -0.0000322    -0.0000155     0.0000000    -0.0000141     0.0000000
 l=   3
     0.0000000     0.0000000     0.0000000     0.0000000     0.0000000     0.0000000     0.0000000
     0.0000000     0.0000000     0.0000000     0.0000000     0.0000000     0.0000000     0.0000000
     0.0000000     0.0000000     0.0000000     0.0000000     0.0000000     0.0000000     0.0000000
     0.0000000     0.0000000     0.0000000     0.0000000     0.0000000     0.0000000     0.0000000
     0.0000000     0.0000000     0.0000000     0.0000000     0.0000000     0.0000000     0.0000000
     0.0000000     0.0000000     0.0000000     0.0000000     0.0000000     0.0000000     0.0000000
     0.0000000     0.0000000     0.0000000     0.0000000     0.0000000     0.0000000     0.0000000

 Ion:   17  E_soc:     -0.2156037
 l=   1
     0.0000000    -0.0358206    -0.0358926
    -0.0358206     0.0000000    -0.0361744
    -0.0358926    -0.0361744     0.0000000
 l=   2
     0.0000000    -0.0000203     0.0000000    -0.0000133     0.0000883
    -0.0000203     0.0000000     0.0000704    -0.0001018    -0.0000121
     0.0000000     0.0000704     0.0000000     0.0000764     0.0000000
    -0.0000133    -0.0001018     0.0000764     0.0000000    -0.0000018
     0.0000883    -0.0000121     0.0000000    -0.0000018     0.0000000
 l=   3
     0.0000000     0.0000000     0.0000000     0.0000000     0.0000000     0.0000000     0.0000000
     0.0000000     0.0000000     0.0000000     0.0000000     0.0000000     0.0000000     0.0000000
     0.0000000     0.0000000     0.0000000     0.0000000     0.0000000     0.0000000     0.0000000
     0.0000000     0.0000000     0.0000000     0.0000000     0.0000000     0.0000000     0.0000000
     0.0000000     0.0000000     0.0000000     0.0000000     0.0000000     0.0000000     0.0000000
     0.0000000     0.0000000     0.0000000     0.0000000     0.0000000     0.0000000     0.0000000
     0.0000000     0.0000000     0.0000000     0.0000000     0.0000000     0.0000000     0.0000000

 Ion:   18  E_soc:     -0.2128144
 l=   1
     0.0000000    -0.0351669    -0.0356902
    -0.0351669     0.0000000    -0.0355635
    -0.0356902    -0.0355635     0.0000000
 l=   2
     0.0000000    -0.0000175     0.0000000    -0.0000125     0.0000419
    -0.0000175     0.0000000     0.0000452    -0.0000808    -0.0000108
     0.0000000     0.0000452     0.0000000     0.0000509     0.0000000
    -0.0000125    -0.0000808     0.0000509     0.0000000    -0.0000032
     0.0000419    -0.0000108     0.0000000    -0.0000032     0.0000000
 l=   3
     0.0000000     0.0000000     0.0000000     0.0000000     0.0000000     0.0000000     0.0000000
     0.0000000     0.0000000     0.0000000     0.0000000     0.0000000     0.0000000     0.0000000
     0.0000000     0.0000000     0.0000000     0.0000000     0.0000000     0.0000000     0.0000000
     0.0000000     0.0000000     0.0000000     0.0000000     0.0000000     0.0000000     0.0000000
     0.0000000     0.0000000     0.0000000     0.0000000     0.0000000     0.0000000     0.0000000
     0.0000000     0.0000000     0.0000000     0.0000000     0.0000000     0.0000000     0.0000000
     0.0000000     0.0000000     0.0000000     0.0000000     0.0000000     0.0000000     0.0000000

 Ion:   19  E_soc:     -0.2127727
 l=   1
     0.0000000    -0.0351659    -0.0356727
    -0.0351659     0.0000000    -0.0355633
    -0.0356727    -0.0355633     0.0000000
 l=   2
     0.0000000    -0.0000175     0.0000000    -0.0000125     0.0000425
    -0.0000175     0.0000000     0.0000462    -0.0000811    -0.0000108
     0.0000000     0.0000462     0.0000000     0.0000519     0.0000000
    -0.0000125    -0.0000811     0.0000519     0.0000000    -0.0000032
     0.0000425    -0.0000108     0.0000000    -0.0000032     0.0000000
 l=   3
     0.0000000     0.0000000     0.0000000     0.0000000     0.0000000     0.0000000     0.0000000
     0.0000000     0.0000000     0.0000000     0.0000000     0.0000000     0.0000000     0.0000000
     0.0000000     0.0000000     0.0000000     0.0000000     0.0000000     0.0000000     0.0000000
     0.0000000     0.0000000     0.0000000     0.0000000     0.0000000     0.0000000     0.0000000
     0.0000000     0.0000000     0.0000000     0.0000000     0.0000000     0.0000000     0.0000000
     0.0000000     0.0000000     0.0000000     0.0000000     0.0000000     0.0000000     0.0000000
     0.0000000     0.0000000     0.0000000     0.0000000     0.0000000     0.0000000     0.0000000

 Ion:   20  E_soc:     -0.2155988
 l=   1
     0.0000000    -0.0358256    -0.0358784
    -0.0358256     0.0000000    -0.0361793
    -0.0358784    -0.0361793     0.0000000
 l=   2
     0.0000000    -0.0000204     0.0000000    -0.0000133     0.0000874
    -0.0000204     0.0000000     0.0000698    -0.0001015    -0.0000121
     0.0000000     0.0000698     0.0000000     0.0000757     0.0000000
    -0.0000133    -0.0001015     0.0000757     0.0000000    -0.0000018
     0.0000874    -0.0000121     0.0000000    -0.0000018     0.0000000
 l=   3
     0.0000000     0.0000000     0.0000000     0.0000000     0.0000000     0.0000000     0.0000000
     0.0000000     0.0000000     0.0000000     0.0000000     0.0000000     0.0000000     0.0000000
     0.0000000     0.0000000     0.0000000     0.0000000     0.0000000     0.0000000     0.0000000
     0.0000000     0.0000000     0.0000000     0.0000000     0.0000000     0.0000000     0.0000000
     0.0000000     0.0000000     0.0000000     0.0000000     0.0000000     0.0000000     0.0000000
     0.0000000     0.0000000     0.0000000     0.0000000     0.0000000     0.0000000     0.0000000
     0.0000000     0.0000000     0.0000000     0.0000000     0.0000000     0.0000000     0.0000000
 


 total charge     
 
# of ion     s       p       d       tot
----------------------------------------
  1        1.293   1.062   0.057   2.412
  2        1.315   1.042   0.060   2.416
  3        1.291   1.077   0.058   2.426
  4        1.291   1.078   0.058   2.426
  5        1.290   1.078   0.058   2.426
  6        1.292   1.078   0.058   2.427
  7        1.315   1.042   0.060   2.416
  8        1.293   1.062   0.057   2.412
  9        1.401   2.109   0.030   3.540
 10        1.368   2.169   0.029   3.566
 11        1.398   2.103   0.029   3.530
 12        1.400   2.114   0.030   3.544
 13        1.400   2.112   0.030   3.542
 14        1.398   2.103   0.029   3.531
 15        1.368   2.169   0.029   3.566
 16        1.400   2.108   0.030   3.539
 17        1.417   2.170   0.026   3.612
 18        1.408   2.171   0.023   3.602
 19        1.408   2.171   0.023   3.603
 20        1.417   2.170   0.026   3.612
------------------------------------------------
tot       27.161  34.189   0.798  62.148
 


 magnetization (x)
 
# of ion     s       p       d       tot
----------------------------------------
  1       -0.004   0.012  -0.000   0.007
  2       -0.005  -0.006  -0.001  -0.011
  3        0.006  -0.004   0.001   0.002
  4       -0.005   0.007  -0.001   0.001
  5        0.005  -0.007   0.001  -0.001
  6       -0.006   0.004  -0.001  -0.002
  7        0.005   0.006   0.001   0.011
  8        0.004  -0.012   0.000  -0.007
  9        0.001  -0.021  -0.000  -0.020
 10        0.003   0.015   0.000   0.018
 11       -0.002   0.014   0.000   0.012
 12        0.001  -0.023  -0.000  -0.022
 13       -0.001   0.023   0.000   0.022
 14        0.002  -0.015  -0.000  -0.012
 15       -0.003  -0.015  -0.000  -0.018
 16       -0.002   0.021   0.000   0.020
 17       -0.001  -0.000  -0.000  -0.001
 18        0.005   0.005   0.000   0.010
 19       -0.005  -0.005  -0.000  -0.010
 20        0.000   0.001   0.000   0.001
------------------------------------------------
tot       -0.000   0.000  -0.000   0.000
 


 magnetization (y)
 
# of ion     s       p       d       tot
----------------------------------------
  1        0.004  -0.012   0.000  -0.008
  2        0.004   0.006   0.001   0.011
  3       -0.006   0.004  -0.001  -0.003
  4        0.005  -0.007   0.001  -0.001
  5       -0.005   0.007  -0.001   0.001
  6        0.006  -0.004   0.001   0.003
  7       -0.004  -0.006  -0.001  -0.011
  8       -0.004   0.012  -0.000   0.007
  9       -0.002   0.021   0.000   0.020
 10       -0.003  -0.014  -0.000  -0.018
 11        0.003  -0.015  -0.000  -0.012
 12       -0.001   0.023   0.000   0.023
 13        0.001  -0.023  -0.000  -0.022
 14       -0.003   0.015   0.000   0.012
 15        0.003   0.014   0.000   0.018
 16        0.002  -0.021  -0.000  -0.020
 17        0.001   0.001   0.000   0.001
 18       -0.005  -0.005  -0.000  -0.011
 19        0.005   0.005   0.000   0.010
 20       -0.001  -0.001  -0.000  -0.001
------------------------------------------------
tot        0.000  -0.000  -0.000  -0.000
 


 magnetization (z)
 
# of ion     s       p       d       tot
----------------------------------------
  1        0.001  -0.002  -0.000  -0.000
  2        0.002   0.004  -0.000   0.006
  3       -0.002   0.000   0.000  -0.001
  4        0.002  -0.001  -0.000   0.001
  5       -0.002   0.001   0.000  -0.001
  6        0.002  -0.000  -0.000   0.001
  7       -0.002  -0.004   0.000  -0.006
  8       -0.001   0.002   0.000   0.000
  9       -0.001   0.003   0.000   0.002
 10       -0.001  -0.003  -0.000  -0.004
 11        0.001   0.000  -0.000   0.001
 12       -0.001   0.003   0.000   0.003
 13        0.001  -0.003  -0.000  -0.003
 14       -0.001  -0.000   0.000  -0.001
 15        0.001   0.003   0.000   0.004
 16        0.001  -0.003  -0.000  -0.002
 17       -0.000   0.000   0.000   0.000
 18       -0.000  -0.001  -0.000  -0.002
 19        0.000   0.001   0.000   0.002
 20        0.000  -0.000  -0.000  -0.000
------------------------------------------------
tot        0.000  -0.000  -0.000  -0.000
 

 total amount of memory used by VASP on root node   445419. kBytes
========================================================================

   base      :      30000. kBytes
   nonl-proj :      13975. kBytes
   fftplans  :      37716. kBytes
   grid      :      33718. kBytes
   one-center:         32. kBytes
   wavefun   :     329978. kBytes
 
  
  
 General timing and accounting informations for this job:
 ========================================================
  
                  Total CPU time used (sec):      371.528
                            User time (sec):      365.306
                          System time (sec):        6.222
                         Elapsed time (sec):      373.744
  
                   Maximum memory used (kb):      584772.
                   Average memory used (kb):           0.
  
                          Minor page faults:       126137
                          Major page faults:            0
                 Voluntary context switches:         5579
