<?xml version="1.0" encoding="ISO-8859-1"?>
<modeling>
 <generator>
  <i name="program" type="string">vasp </i>
  <i name="version" type="string">5.4.1  </i>
  <i name="subversion" type="string">05Feb16 (build Oct 07 2016 17:26:14) complex                          parallel </i>
  <i name="platform" type="string">GRP7IFC17AVX2 </i>
  <i name="date" type="string">2017 09 26 </i>
  <i name="time" type="string">01:03:49 </i>
 </generator>
 <incar>
  <i type="string" name="PREC">accurate</i>
  <i type="string" name="ALGO">Exact</i>
  <i type="logical" name="ADDGRID"> T  </i>
  <i type="int" name="IBRION">    -1</i>
  <i name="EDIFF">      0.00001000</i>
  <i type="int" name="NSW">     0</i>
  <i name="ENCUT">    500.00000000</i>
  <i type="int" name="NBANDS">    16</i>
  <i name="POTIM">      0.50000000</i>
  <i type="int" name="NEDOS">  2000</i>
  <i type="logical" name="LREAL"> F  </i>
  <i name="TIME">      0.30000000</i>
  <i type="int" name="ISMEAR">     0</i>
  <i name="SIGMA">      0.01000000</i>
  <i name="KSPACING">      0.20000000</i>
  <i type="logical" name="KGAMMA"> T  </i>
  <i type="logical" name="LWAVE"> T  </i>
  <i type="logical" name="LCHARG"> T  </i>
  <i type="logical" name="LORBIT"> F  </i>
  <i type="logical" name="LOPTICS"> T  </i>
  <i type="logical" name="LASPH"> T  </i>
  <i type="int" name="NOMEGA">   400</i>
  <v type="int" name="KPOINT_BSE">    -1     0     0     0</v>
  <i type="logical" name="LHFCALC"> T  </i>
  <i type="int" name="LMAXFOCK">     4</i>
  <i name="HFSCREEN">      0.20700000</i>
  <i name="AEXX">      0.25000000</i>
  <i type="string" name="PRECFOCK">fast</i>
  <i type="logical" name="LASPH"> T  </i>
 </incar>
 <kpoints>
  <generation param="Gamma">
   <v type="int" name="divisions">      11       11       11 </v>
   <v name="usershift">      0.00000000       0.00000000       0.00000000 </v>
   <v name="genvec1">      0.09090909      -0.00000000      -0.00000000 </v>
   <v name="genvec2">     -0.00000000       0.09090909       0.00000000 </v>
   <v name="genvec3">      0.00000000       0.00000000       0.09090909 </v>
   <v name="shift">      0.00000000       0.00000000       0.00000000 </v>
  </generation>
  <varray name="kpointlist" >
   <v>       0.00000000       0.00000000       0.00000000 </v>
   <v>       0.09090909       0.00000000       0.00000000 </v>
   <v>       0.18181818       0.00000000       0.00000000 </v>
   <v>       0.27272727      -0.00000000       0.00000000 </v>
   <v>       0.36363636       0.00000000       0.00000000 </v>
   <v>       0.45454545       0.00000000       0.00000000 </v>
   <v>       0.09090909       0.09090909       0.00000000 </v>
   <v>       0.18181818       0.09090909       0.00000000 </v>
   <v>       0.27272727       0.09090909       0.00000000 </v>
   <v>       0.36363636       0.09090909       0.00000000 </v>
   <v>       0.45454545       0.09090909       0.00000000 </v>
   <v>      -0.45454545       0.09090909      -0.00000000 </v>
   <v>      -0.36363636       0.09090909      -0.00000000 </v>
   <v>      -0.27272727       0.09090909      -0.00000000 </v>
   <v>      -0.18181818       0.09090909      -0.00000000 </v>
   <v>      -0.09090909       0.09090909      -0.00000000 </v>
   <v>       0.18181818       0.18181818       0.00000000 </v>
   <v>       0.27272727       0.18181818       0.00000000 </v>
   <v>       0.36363636       0.18181818       0.00000000 </v>
   <v>       0.45454545       0.18181818       0.00000000 </v>
   <v>      -0.45454545       0.18181818      -0.00000000 </v>
   <v>      -0.36363636       0.18181818      -0.00000000 </v>
   <v>      -0.27272727       0.18181818      -0.00000000 </v>
   <v>      -0.18181818       0.18181818      -0.00000000 </v>
   <v>       0.27272727       0.27272727       0.00000000 </v>
   <v>       0.36363636       0.27272727       0.00000000 </v>
   <v>       0.45454545       0.27272727       0.00000000 </v>
   <v>      -0.45454545       0.27272727      -0.00000000 </v>
   <v>      -0.36363636       0.27272727      -0.00000000 </v>
   <v>      -0.27272727       0.27272727      -0.00000000 </v>
   <v>       0.36363636       0.36363636       0.00000000 </v>
   <v>       0.45454545       0.36363636      -0.00000000 </v>
   <v>      -0.45454545       0.36363636       0.00000000 </v>
   <v>      -0.36363636       0.36363636      -0.00000000 </v>
   <v>       0.45454545       0.45454545       0.00000000 </v>
   <v>      -0.45454545       0.45454545      -0.00000000 </v>
   <v>       0.27272727       0.18181818       0.09090909 </v>
   <v>       0.36363636       0.18181818       0.09090909 </v>
   <v>       0.45454545       0.18181818       0.09090909 </v>
   <v>      -0.45454545       0.18181818       0.09090909 </v>
   <v>       0.36363636       0.27272727       0.09090909 </v>
   <v>       0.45454545       0.27272727       0.09090909 </v>
   <v>      -0.45454545       0.27272727       0.09090909 </v>
   <v>      -0.36363636       0.27272727       0.09090909 </v>
   <v>      -0.27272727       0.27272727       0.09090909 </v>
   <v>      -0.18181818       0.27272727       0.09090909 </v>
   <v>       0.45454545       0.36363636       0.09090909 </v>
   <v>      -0.45454545       0.36363636       0.09090909 </v>
   <v>      -0.36363636       0.36363636       0.09090909 </v>
   <v>      -0.27272727       0.36363636       0.09090909 </v>
   <v>      -0.45454545       0.45454545       0.09090909 </v>
   <v>      -0.36363636       0.45454545       0.09090909 </v>
   <v>      -0.45454545       0.36363636       0.18181818 </v>
   <v>      -0.36363636       0.36363636       0.18181818 </v>
   <v>      -0.36363636       0.45454545       0.18181818 </v>
   <v>      -0.27272727       0.45454545       0.18181818 </v>
  </varray>
  <varray name="weights" >
   <v>       0.00075131 </v>
   <v>       0.00601052 </v>
   <v>       0.00601052 </v>
   <v>       0.00601052 </v>
   <v>       0.00601052 </v>
   <v>       0.00601052 </v>
   <v>       0.00450789 </v>
   <v>       0.01803156 </v>
   <v>       0.01803156 </v>
   <v>       0.01803156 </v>
   <v>       0.01803156 </v>
   <v>       0.01803156 </v>
   <v>       0.01803156 </v>
   <v>       0.01803156 </v>
   <v>       0.01803156 </v>
   <v>       0.00901578 </v>
   <v>       0.00450789 </v>
   <v>       0.01803156 </v>
   <v>       0.01803156 </v>
   <v>       0.01803156 </v>
   <v>       0.01803156 </v>
   <v>       0.01803156 </v>
   <v>       0.01803156 </v>
   <v>       0.00901578 </v>
   <v>       0.00450789 </v>
   <v>       0.01803156 </v>
   <v>       0.01803156 </v>
   <v>       0.01803156 </v>
   <v>       0.01803156 </v>
   <v>       0.00901578 </v>
   <v>       0.00450789 </v>
   <v>       0.01803156 </v>
   <v>       0.01803156 </v>
   <v>       0.00901578 </v>
   <v>       0.00450789 </v>
   <v>       0.00901578 </v>
   <v>       0.01803156 </v>
   <v>       0.03606311 </v>
   <v>       0.03606311 </v>
   <v>       0.03606311 </v>
   <v>       0.01803156 </v>
   <v>       0.03606311 </v>
   <v>       0.03606311 </v>
   <v>       0.03606311 </v>
   <v>       0.03606311 </v>
   <v>       0.01803156 </v>
   <v>       0.01803156 </v>
   <v>       0.03606311 </v>
   <v>       0.03606311 </v>
   <v>       0.01803156 </v>
   <v>       0.01803156 </v>
   <v>       0.01803156 </v>
   <v>       0.01803156 </v>
   <v>       0.03606311 </v>
   <v>       0.01803156 </v>
   <v>       0.01803156 </v>
  </varray>
 </kpoints>
 <parameters>
  <separator name="general" >
   <i type="string" name="SYSTEM">unknown system</i>
   <i type="logical" name="LCOMPAT"> F  </i>
  </separator>
  <separator name="electronic" >
   <i type="string" name="PREC">accura</i>
   <i name="ENMAX">    500.00000000</i>
   <i name="ENAUG">    322.06900000</i>
   <i name="EDIFF">      0.00001000</i>
   <i type="int" name="IALGO">    90</i>
   <i type="int" name="IWAVPR">    10</i>
   <i type="int" name="NBANDS">    16</i>
   <i name="NELECT">      8.00000000</i>
   <i type="int" name="TURBO">     0</i>
   <i type="int" name="IRESTART">     0</i>
   <i type="int" name="NREBOOT">     0</i>
   <i type="int" name="NMIN">     0</i>
   <i name="EREF">      0.00000000</i>
   <separator name="electronic smearing" >
    <i type="int" name="ISMEAR">     0</i>
    <i name="SIGMA">      0.01000000</i>
    <i name="KSPACING">      0.20000000</i>
    <i type="logical" name="KGAMMA"> T  </i>
   </separator>
   <separator name="electronic projectors" >
    <i type="logical" name="LREAL"> F  </i>
    <v name="ROPT">      0.00000000</v>
    <i type="int" name="LMAXPAW">  -100</i>
    <i type="int" name="LMAXMIX">     2</i>
    <i type="logical" name="NLSPLINE"> F  </i>
   </separator>
   <separator name="electronic startup" >
    <i type="int" name="ISTART">     1</i>
    <i type="int" name="ICHARG">     0</i>
    <i type="int" name="INIWAV">     1</i>
   </separator>
   <separator name="electronic spin" >
    <i type="int" name="ISPIN">     1</i>
    <i type="logical" name="LNONCOLLINEAR"> F  </i>
    <v name="MAGMOM">      1.00000000      1.00000000</v>
    <i name="NUPDOWN">     -1.00000000</i>
    <i type="logical" name="LSORBIT"> F  </i>
    <v name="SAXIS">      0.00000000      0.00000000      1.00000000</v>
    <i type="logical" name="LSPIRAL"> F  </i>
    <v name="QSPIRAL">      0.00000000      0.00000000      0.00000000</v>
    <i type="logical" name="LZEROZ"> F  </i>
   </separator>
   <separator name="electronic exchange-correlation" >
    <i type="logical" name="LASPH"> T  </i>
    <i type="logical" name="LMETAGGA"> F  </i>
   </separator>
   <separator name="electronic convergence" >
    <i type="int" name="NELM">    60</i>
    <i type="int" name="NELMDL">     0</i>
    <i type="int" name="NELMIN">     2</i>
    <i name="ENINI">    500.00000000</i>
    <separator name="electronic convergence detail" >
     <i type="logical" name="LDIAG"> T  </i>
     <i type="logical" name="LSUBROT"> F  </i>
     <i name="WEIMIN">      0.00000000</i>
     <i name="EBREAK">      0.00000016</i>
     <i name="DEPER">      0.30000000</i>
     <i type="int" name="NRMM">     4</i>
     <i name="TIME">      0.30000000</i>
    </separator>
   </separator>
   <separator name="electronic mixer" >
    <i name="AMIX">      0.40000000</i>
    <i name="BMIX">      1.00000000</i>
    <i name="AMIN">      0.10000000</i>
    <i name="AMIX_MAG">      1.60000000</i>
    <i name="BMIX_MAG">      1.00000000</i>
    <separator name="electronic mixer details" >
     <i type="int" name="IMIX">     1</i>
     <i type="logical" name="MIXFIRST"> F  </i>
     <i type="int" name="MAXMIX">   -45</i>
     <i name="WC">    100.00000000</i>
     <i type="int" name="INIMIX">     1</i>
     <i type="int" name="MIXPRE">     1</i>
     <i type="int" name="MREMOVE">     5</i>
    </separator>
   </separator>
   <separator name="electronic dipolcorrection" >
    <i type="logical" name="LDIPOL"> F  </i>
    <i type="logical" name="LMONO"> F  </i>
    <i type="int" name="IDIPOL">     0</i>
    <i name="EPSILON">      1.00000000</i>
    <v name="DIPOL">   -100.00000000   -100.00000000   -100.00000000</v>
    <i name="EFIELD">      0.00000000</i>
   </separator>
  </separator>
  <separator name="grids" >
   <i type="int" name="NGX">    28</i>
   <i type="int" name="NGY">    28</i>
   <i type="int" name="NGZ">    28</i>
   <i type="int" name="NGXF">    56</i>
   <i type="int" name="NGYF">    56</i>
   <i type="int" name="NGZF">    56</i>
   <i type="logical" name="ADDGRID"> T  </i>
  </separator>
  <separator name="ionic" >
   <i type="int" name="NSW">     0</i>
   <i type="int" name="IBRION">    -1</i>
   <i type="int" name="ISIF">     0</i>
   <i name="PSTRESS">      0.00000000</i>
   <i name="EDIFFG">      0.00010000</i>
   <i type="int" name="NFREE">     0</i>
   <i name="POTIM">      0.50000000</i>
   <i name="SMASS">     -3.00000000</i>
   <i name="SCALEE">      1.00000000</i>
  </separator>
  <separator name="ionic md" >
   <i name="TEBEG">      0.00010000</i>
   <i name="TEEND">      0.00010000</i>
   <i type="int" name="NBLOCK">     1</i>
   <i type="int" name="KBLOCK">     1</i>
   <i type="int" name="NPACO">   256</i>
   <i name="APACO">     16.00000000</i>
  </separator>
  <separator name="symmetry" >
   <i type="int" name="ISYM">     3</i>
   <i name="SYMPREC">      0.00001000</i>
  </separator>
  <separator name="dos" >
   <i type="logical" name="LORBIT"> F  </i>
   <v name="RWIGS">     -1.00000000</v>
   <i type="int" name="NEDOS">  2000</i>
   <i name="EMIN">     10.00000000</i>
   <i name="EMAX">    -10.00000000</i>
   <i name="EFERMI">      0.00000000</i>
  </separator>
  <separator name="writing" >
   <i type="int" name="NWRITE">     2</i>
   <i type="logical" name="LWAVE"> T  </i>
   <i type="logical" name="LCHARG"> T  </i>
   <i type="logical" name="LPARD"> F  </i>
   <i type="logical" name="LVTOT"> F  </i>
   <i type="logical" name="LVHAR"> F  </i>
   <i type="logical" name="LELF"> F  </i>
   <i type="logical" name="LOPTICS"> T  </i>
   <v name="STM">      0.00000000      0.00000000      0.00000000      0.00000000      0.00000000      0.00000000      0.00000000</v>
  </separator>
  <separator name="performance" >
   <i type="int" name="NPAR">     4</i>
   <i type="int" name="NSIM">     4</i>
   <i type="int" name="NBLK">    -1</i>
   <i type="logical" name="LPLANE"> T  </i>
   <i type="logical" name="LSCALAPACK"> T  </i>
   <i type="logical" name="LSCAAWARE"> F  </i>
   <i type="logical" name="LSCALU"> F  </i>
   <i type="logical" name="LASYNC"> F  </i>
   <i type="logical" name="LORBITALREAL"> F  </i>
  </separator>
  <separator name="miscellaneous" >
   <i type="int" name="IDIOT">     3</i>
   <i type="logical" name="LMUSIC"> F  </i>
   <v name="POMASS">     28.08500000</v>
   <v name="DARWINR">      0.00000000</v>
   <v name="DARWINV">      1.00000000</v>
   <i type="logical" name="LCORR"> T  </i>
  </separator>
  <i type="logical" name="GGA_COMPAT"> T  </i>
  <i type="logical" name="LBERRY"> F  </i>
  <i type="int" name="ICORELEVEL">     0</i>
  <i type="logical" name="LDAU"> F  </i>
  <i type="int" name="I_CONSTRAINED_M">     0</i>
  <separator name="electronic exchange-correlation" >
   <i type="string" name="GGA">--</i>
   <i type="int" name="VOSKOWN">     0</i>
   <i type="logical" name="LHFCALC"> T  </i>
   <i type="string" name="PRECFOCK">fast</i>
   <i type="logical" name="LSYMGRAD"> F  </i>
   <i type="logical" name="LHFONE"> F  </i>
   <i type="logical" name="LRHFCALC"> F  </i>
   <i type="logical" name="LTHOMAS"> F  </i>
   <i type="logical" name="LMODELHF"> F  </i>
   <i name="ENCUT4O">     -1.00000000</i>
   <i type="int" name="EXXOEP">     0</i>
   <i type="int" name="FOURORBIT">     0</i>
   <i name="AEXX">      0.25000000</i>
   <i name="HFALPHA">     -1.00000000</i>
   <i name="MCALPHA">      0.00000000</i>
   <i name="ALDAX">      0.75000000</i>
   <i name="AGGAX">      0.75000000</i>
   <i name="ALDAC">      1.00000000</i>
   <i name="AGGAC">      1.00000000</i>
   <i type="int" name="NKREDX">     1</i>
   <i type="int" name="NKREDY">     1</i>
   <i type="int" name="NKREDZ">     1</i>
   <i type="logical" name="SHIFTRED"> F  </i>
   <i type="logical" name="ODDONLY"> F  </i>
   <i type="logical" name="EVENONLY"> F  </i>
   <i type="int" name="LMAXFOCK">     4</i>
   <i type="int" name="NMAXFOCKAE">     1</i>
   <i type="logical" name="LFOCKAEDFT"> F  </i>
   <i name="HFSCREEN">      0.20700000</i>
   <i name="HFSCREENC">      0.20700000</i>
   <i type="int" name="NBANDSGWLOW">     1</i>
  </separator>
  <separator name="vdW DFT" >
   <i type="logical" name="LUSE_VDW"> F  </i>
   <i name="Zab_VDW">     -0.84910000</i>
   <i name="PARAM1">      0.12340000</i>
   <i name="PARAM2">      1.00000000</i>
   <i name="PARAM3">      0.00000000</i>
  </separator>
  <separator name="model GW" >
   <i type="int" name="MODEL_GW">     0</i>
   <i name="MODEL_EPS0">     11.98236458</i>
   <i name="MODEL_ALPHA">      1.00000000</i>
  </separator>
  <separator name="linear response parameters" >
   <i type="logical" name="LEPSILON"> F  </i>
   <i type="logical" name="LRPA"> F  </i>
   <i type="logical" name="LNABLA"> F  </i>
   <i type="logical" name="LVEL"> F  </i>
   <i type="int" name="KINTER">     0</i>
   <i name="CSHIFT">      0.10000000</i>
   <i name="OMEGAMAX">     -1.00000000</i>
   <i name="DEG_THRESHOLD">      0.00200000</i>
  </separator>
  <separator name="orbital magnetization" >
   <i type="logical" name="NUCIND"> F  </i>
   <v name="MAGPOS">      0.00000000      0.00000000      0.00000000</v>
   <i type="logical" name="LNICSALL"> T  </i>
   <i type="logical" name="ORBITALMAG"> F  </i>
   <i type="logical" name="LMAGBLOCH"> F  </i>
   <i type="logical" name="LCHIMAG"> F  </i>
   <i type="logical" name="LGAUGE"> T  </i>
   <i type="int" name="MAGATOM">     0</i>
   <v name="MAGDIPOL">      0.00000000      0.00000000      0.00000000</v>
   <v name="AVECCONST">      0.00000000      0.00000000      0.00000000</v>
  </separator>
  <separator name="response functions" >
   <i type="logical" name="LADDER"> F  </i>
   <i type="logical" name="LFXC"> F  </i>
   <i type="logical" name="LHARTREE"> T  </i>
   <i type="int" name="IBSE">     0</i>
   <v type="int" name="KPOINT">    -1     0     0     0</v>
   <i type="logical" name="LTCTE"> F  </i>
   <i type="logical" name="LTETE"> F  </i>
   <i type="logical" name="LTRIPLET"> F  </i>
   <i type="logical" name="LFXCEPS"> F  </i>
   <i type="logical" name="LFXHEG"> F  </i>
   <i type="int" name="NATURALO">     0</i>
   <i type="logical" name="L2ORDER"> F  </i>
   <i type="logical" name="LUSEW"> F  </i>
   <i name="ENCUTGW">     -2.00000000</i>
   <i name="ENCUTGWSOFT">     -2.00000000</i>
   <i name="ENCUTLF">     -1.00000000</i>
   <i type="int" name="LMAXMP2">    -1</i>
   <i name="SCISSOR">      0.00000000</i>
   <i type="int" name="NOMEGA">   400</i>
   <i type="int" name="NOMEGAR">     0</i>
   <i type="int" name="NBANDSGW">    -1</i>
   <i type="int" name="NBANDSO">    -1</i>
   <i type="int" name="NBANDSV">    -1</i>
   <i type="int" name="NELM">     1</i>
   <i type="int" name="NELMHF">     1</i>
   <i type="int" name="DIM">     3</i>
   <i type="int" name="ANTIRES">     0</i>
   <i name="OMEGAMAX">    -30.00000000</i>
   <i name="OMEGAMIN">    -30.00000000</i>
   <i name="OMEGATL">   -200.00000000</i>
   <i type="int" name="OMEGAGRID">     0</i>
   <i name="CSHIFT">     -0.10000000</i>
   <i type="logical" name="SELFENERGY"> F  </i>
   <i type="logical" name="LSPECTRAL"> T  </i>
   <i type="logical" name="LSPECTRALGW"> F  </i>
   <i type="logical" name="LSINGLES"> F  </i>
   <i type="logical" name="LFERMIGW"> F  </i>
   <i type="logical" name="ODDONLYGW"> F  </i>
   <i type="logical" name="EVENONLYGW"> F  </i>
   <i type="int" name="NKREDLFX">     1</i>
   <i type="int" name="NKREDLFY">     1</i>
   <i type="int" name="NKREDLFZ">     1</i>
   <i type="int" name="MAXMEM">  1800</i>
   <i type="int" name="TELESCOPE">     0</i>
   <i type="int" name="TAUPAR">     1</i>
   <i type="int" name="OMEGAPAR">    -1</i>
   <i name="LAMBDA">      1.00000000</i>
  </separator>
  <separator name="External order field" >
   <i name="OFIELD_KAPPA">      0.00000000</i>
   <v name="OFIELD_K">      0.00000000      0.00000000      0.00000000</v>
   <i name="OFIELD_Q6_NEAR">      0.00000000</i>
   <i name="OFIELD_Q6_FAR">      0.00000000</i>
   <i name="OFIELD_A">      0.00000000</i>
  </separator>
 </parameters>
 <atominfo>
  <atoms>       2 </atoms>
  <types>       1 </types>
  <array name="atoms" >
   <dimension dim="1">ion</dimension>
   <field type="string">element</field>
   <field type="int">atomtype</field>
   <set>
    <rc><c>Si</c><c>   1</c></rc>
    <rc><c>Si</c><c>   1</c></rc>
   </set>
  </array>
  <array name="atomtypes" >
   <dimension dim="1">type</dimension>
   <field type="int">atomspertype</field>
   <field type="string">element</field>
   <field>mass</field>
   <field>valence</field>
   <field type="string">pseudopotential</field>
   <set>
    <rc><c>   2</c><c>Si</c><c>     28.08500000</c><c>      4.00000000</c><c>  PAW_PBE Si 05Jan2001                  </c></rc>
   </set>
  </array>
 </atominfo>
 <structure name="initialpos" >
  <crystal>
   <varray name="basis" >
    <v>       2.71308725       2.71308725       0.00000000 </v>
    <v>       0.00000000       2.71308725       2.71308725 </v>
    <v>       2.71308725       0.00000000       2.71308725 </v>
   </varray>
   <i name="volume">     39.94121528 </i>
   <varray name="rec_basis" >
    <v>       0.18429190       0.18429190      -0.18429190 </v>
    <v>      -0.18429190       0.18429190       0.18429190 </v>
    <v>       0.18429190      -0.18429190       0.18429190 </v>
   </varray>
  </crystal>
  <varray name="positions" >
   <v>       0.00000000       0.00000000       0.00000000 </v>
   <v>       0.25000000       0.25000000       0.25000000 </v>
  </varray>
 </structure>
 <calculation>
  <scstep>
   <time name="diag"> 1479.57 1479.95</time>
   <time name="total"> 1480.03 1480.42</time>
   <energy>
    <i name="alphaZ">      3.37126756 </i>
    <i name="ewald">   -228.72466456 </i>
    <i name="hartreedc">    -14.94300062 </i>
    <i name="XCdc">    -14.40031609 </i>
    <i name="pawpsdc">   1700.61436417 </i>
    <i name="pawaedc">  -1672.94540652 </i>
    <i name="eentropy">     -0.00000000 </i>
    <i name="bandstr">     -0.75670850 </i>
    <i name="atom">    204.02745786 </i>
    <i name="e_fr_energy">    -12.55622574 </i>
    <i name="e_wo_entrp">    -12.55622574 </i>
    <i name="e_0_energy">    -12.55622574 </i>
   </energy>
  </scstep>
  <scstep>
   <time name="diag"> 1495.81 1496.18</time>
   <time name="total"> 1496.18 1496.60</time>
   <energy>
    <i name="alphaZ">      3.37126756 </i>
    <i name="ewald">   -228.72466456 </i>
    <i name="hartreedc">    -14.94309683 </i>
    <i name="XCdc">    -14.40030969 </i>
    <i name="pawpsdc">   1700.47136932 </i>
    <i name="pawaedc">  -1672.80241719 </i>
    <i name="eentropy">     -0.00000000 </i>
    <i name="bandstr">     -0.75670156 </i>
    <i name="atom">    204.02745786 </i>
    <i name="e_fr_energy">    -12.55622574 </i>
    <i name="e_wo_entrp">    -12.55622574 </i>
    <i name="e_0_energy">    -12.55622574 </i>
   </energy>
  </scstep>
  <structure>
   <crystal>
    <varray name="basis" >
     <v>       2.71308725       2.71308725       0.00000000 </v>
     <v>       0.00000000       2.71308725       2.71308725 </v>
     <v>       2.71308725       0.00000000       2.71308725 </v>
    </varray>
    <i name="volume">     39.94121528 </i>
    <varray name="rec_basis" >
     <v>       0.18429190       0.18429190      -0.18429190 </v>
     <v>      -0.18429190       0.18429190       0.18429190 </v>
     <v>       0.18429190      -0.18429190       0.18429190 </v>
    </varray>
   </crystal>
   <varray name="positions" >
    <v>       0.00000000       0.00000000       0.00000000 </v>
    <v>       0.25000000       0.25000000       0.25000000 </v>
   </varray>
  </structure>
  <varray name="forces" >
   <v>       0.00000000       0.00000000       0.00000000 </v>
   <v>      -0.00000000      -0.00000000      -0.00000000 </v>
  </varray>
  <energy>
   <i name="e_fr_energy">    -12.55622574 </i>
   <i name="e_wo_entrp">    -12.55622574 </i>
   <i name="e_0_energy">     -0.00000000 </i>
  </energy>
  <time name="totalsc"> 2986.11 2987.55</time>
  <eigenvalues>
   <array>
    <dimension dim="1">band</dimension>
    <dimension dim="2">kpoint</dimension>
    <dimension dim="3">spin</dimension>
    <field>eigene</field>
    <field>occ</field>
    <set>
     <set comment="spin 1">
      <set comment="kpoint 1">
       <r>   -7.8141    1.0000 </r>
       <r>    5.4989    1.0000 </r>
       <r>    5.4989    1.0000 </r>
       <r>    5.4989    1.0000 </r>
       <r>    8.8231    0.0000 </r>
       <r>    8.8231    0.0000 </r>
       <r>    8.8231    0.0000 </r>
       <r>    9.8450    0.0000 </r>
       <r>   14.2862    0.0000 </r>
       <r>   14.2862    0.0000 </r>
       <r>   14.3023    0.0000 </r>
       <r>   17.8383    0.0000 </r>
       <r>   17.8383    0.0000 </r>
       <r>   17.8383    0.0000 </r>
       <r>   21.7967    0.0000 </r>
       <r>   30.2843    0.0000 </r>
      </set>
      <set comment="kpoint 2">
       <r>   -7.6939    1.0000 </r>
       <r>    4.4692    1.0000 </r>
       <r>    5.3257    1.0000 </r>
       <r>    5.3257    1.0000 </r>
       <r>    8.8636    0.0000 </r>
       <r>    9.0832    0.0000 </r>
       <r>    9.0832    0.0000 </r>
       <r>   10.6112    0.0000 </r>
       <r>   13.9409    0.0000 </r>
       <r>   13.9409    0.0000 </r>
       <r>   14.7935    0.0000 </r>
       <r>   17.4254    0.0000 </r>
       <r>   18.5549    0.0000 </r>
       <r>   18.5549    0.0000 </r>
       <r>   22.5623    0.0000 </r>
       <r>   29.0957    0.0000 </r>
      </set>
      <set comment="kpoint 3">
       <r>   -7.3375    1.0000 </r>
       <r>    2.6168    1.0000 </r>
       <r>    4.9592    1.0000 </r>
       <r>    4.9592    1.0000 </r>
       <r>    8.5505    0.0000 </r>
       <r>    9.5926    0.0000 </r>
       <r>    9.5926    0.0000 </r>
       <r>   12.2622    0.0000 </r>
       <r>   13.5506    0.0000 </r>
       <r>   13.5506    0.0000 </r>
       <r>   15.5833    0.0000 </r>
       <r>   17.2846    0.0000 </r>
       <r>   20.1487    0.0000 </r>
       <r>   20.1487    0.0000 </r>
       <r>   24.2091    0.0000 </r>
       <r>   26.5997    0.0000 </r>
      </set>
      <set comment="kpoint 4">
       <r>   -6.7625    1.0000 </r>
       <r>    0.7485    1.0000 </r>
       <r>    4.5995    1.0000 </r>
       <r>    4.5995    1.0000 </r>
       <r>    8.1835    0.0000 </r>
       <r>    9.8541    0.0000 </r>
       <r>    9.8541    0.0000 </r>
       <r>   13.8691    0.0000 </r>
       <r>   13.8691    0.0000 </r>
       <r>   13.8774    0.0000 </r>
       <r>   15.3627    0.0000 </r>
       <r>   18.9862    0.0000 </r>
       <r>   21.8594    0.0000 </r>
       <r>   21.8594    0.0000 </r>
       <r>   24.3388    0.0000 </r>
       <r>   24.3388    0.0000 </r>
      </set>
      <set comment="kpoint 5">
       <r>   -6.0246    1.0000 </r>
       <r>   -0.8979    1.0000 </r>
       <r>    4.3371    1.0000 </r>
       <r>    4.3371    1.0000 </r>
       <r>    7.9075    0.0000 </r>
       <r>    9.7762    0.0000 </r>
       <r>    9.7762    0.0000 </r>
       <r>   14.3399    0.0000 </r>
       <r>   15.0196    0.0000 </r>
       <r>   15.0196    0.0000 </r>
       <r>   16.1553    0.0000 </r>
       <r>   20.8748    0.0000 </r>
       <r>   20.9577    0.0000 </r>
       <r>   20.9577    0.0000 </r>
       <r>   23.6084    0.0000 </r>
       <r>   25.1181    0.0000 </r>
      </set>
      <set comment="kpoint 6">
       <r>   -5.3398    1.0000 </r>
       <r>   -2.0474    1.0000 </r>
       <r>    4.2019    1.0000 </r>
       <r>    4.2019    1.0000 </r>
       <r>    7.7640    0.0000 </r>
       <r>    9.6530    0.0000 </r>
       <r>    9.6530    0.0000 </r>
       <r>   14.1504    0.0000 </r>
       <r>   16.6630    0.0000 </r>
       <r>   16.6630    0.0000 </r>
       <r>   17.6875    0.0000 </r>
       <r>   18.8438    0.0000 </r>
       <r>   18.8438    0.0000 </r>
       <r>   20.3295    0.0000 </r>
       <r>   25.2401    0.0000 </r>
       <r>   27.5172    0.0000 </r>
      </set>
      <set comment="kpoint 7">
       <r>   -7.6536    1.0000 </r>
       <r>    4.6692    1.0000 </r>
       <r>    4.9837    1.0000 </r>
       <r>    4.9837    1.0000 </r>
       <r>    8.4634    0.0000 </r>
       <r>    9.5277    0.0000 </r>
       <r>    9.5277    0.0000 </r>
       <r>   10.5725    0.0000 </r>
       <r>   13.3329    0.0000 </r>
       <r>   14.4573    0.0000 </r>
       <r>   14.9562    0.0000 </r>
       <r>   18.1029    0.0000 </r>
       <r>   18.1029    0.0000 </r>
       <r>   18.4680    0.0000 </r>
       <r>   22.8991    0.0000 </r>
       <r>   28.6450    0.0000 </r>
      </set>
      <set comment="kpoint 8">
       <r>   -7.3750    1.0000 </r>
       <r>    3.1737    1.0000 </r>
       <r>    4.5498    1.0000 </r>
       <r>    4.7646    1.0000 </r>
       <r>    8.4806    0.0000 </r>
       <r>    9.6475    0.0000 </r>
       <r>   10.1704    0.0000 </r>
       <r>   11.4225    0.0000 </r>
       <r>   13.1517    0.0000 </r>
       <r>   14.4008    0.0000 </r>
       <r>   15.8351    0.0000 </r>
       <r>   17.6477    0.0000 </r>
       <r>   19.0189    0.0000 </r>
       <r>   19.9624    0.0000 </r>
       <r>   24.3327    0.0000 </r>
       <r>   26.4823    0.0000 </r>
      </set>
      <set comment="kpoint 9">
       <r>   -6.8700    1.0000 </r>
       <r>    1.3545    1.0000 </r>
       <r>    4.1916    1.0000 </r>
       <r>    4.3641    1.0000 </r>
       <r>    8.6160    0.0000 </r>
       <r>    9.6407    0.0000 </r>
       <r>   10.5478    0.0000 </r>
       <r>   11.7496    0.0000 </r>
       <r>   14.4176    0.0000 </r>
       <r>   14.6050    0.0000 </r>
       <r>   16.0294    0.0000 </r>
       <r>   18.4759    0.0000 </r>
       <r>   20.6281    0.0000 </r>
       <r>   21.8808    0.0000 </r>
       <r>   24.0055    0.0000 </r>
       <r>   24.6470    0.0000 </r>
      </set>
      <set comment="kpoint 10">
       <r>   -6.1756    1.0000 </r>
       <r>   -0.3498    1.0000 </r>
       <r>    3.9414    1.0000 </r>
       <r>    3.9772    1.0000 </r>
       <r>    8.4765    0.0000 </r>
       <r>    9.6314    0.0000 </r>
       <r>   10.4605    0.0000 </r>
       <r>   12.5900    0.0000 </r>
       <r>   15.4002    0.0000 </r>
       <r>   15.5961    0.0000 </r>
       <r>   16.2941    0.0000 </r>
       <r>   20.2800    0.0000 </r>
       <r>   20.6545    0.0000 </r>
       <r>   22.1399    0.0000 </r>
       <r>   23.6472    0.0000 </r>
       <r>   24.3412    0.0000 </r>
      </set>
      <set comment="kpoint 11">
       <r>   -5.4250    1.0000 </r>
       <r>   -1.7001    1.0000 </r>
       <r>    3.6074    1.0000 </r>
       <r>    3.9261    1.0000 </r>
       <r>    8.3425    0.0000 </r>
       <r>    9.5553    0.0000 </r>
       <r>   10.1972    0.0000 </r>
       <r>   13.9197    0.0000 </r>
       <r>   15.2642    0.0000 </r>
       <r>   17.1094    0.0000 </r>
       <r>   17.9247    0.0000 </r>
       <r>   18.6093    0.0000 </r>
       <r>   19.5034    0.0000 </r>
       <r>   21.9157    0.0000 </r>
       <r>   24.4284    0.0000 </r>
       <r>   25.8889    0.0000 </r>
      </set>
      <set comment="kpoint 12">
       <r>   -5.1214    1.0000 </r>
       <r>   -2.1548    1.0000 </r>
       <r>    3.4082    1.0000 </r>
       <r>    4.0351    1.0000 </r>
       <r>    8.3265    0.0000 </r>
       <r>    9.5986    0.0000 </r>
       <r>    9.9989    0.0000 </r>
       <r>   14.5625    0.0000 </r>
       <r>   16.0075    0.0000 </r>
       <r>   16.3568    0.0000 </r>
       <r>   17.7127    0.0000 </r>
       <r>   19.2218    0.0000 </r>
       <r>   19.5398    0.0000 </r>
       <r>   20.6555    0.0000 </r>
       <r>   25.8487    0.0000 </r>
       <r>   26.9973    0.0000 </r>
      </set>
      <set comment="kpoint 13">
       <r>   -5.6647    1.0000 </r>
       <r>   -1.3068    1.0000 </r>
       <r>    3.3689    1.0000 </r>
       <r>    4.2865    1.0000 </r>
       <r>    8.4432    0.0000 </r>
       <r>    9.7985    0.0000 </r>
       <r>    9.9263    0.0000 </r>
       <r>   14.3209    0.0000 </r>
       <r>   14.5915    0.0000 </r>
       <r>   15.7434    0.0000 </r>
       <r>   18.0719    0.0000 </r>
       <r>   18.7356    0.0000 </r>
       <r>   21.3359    0.0000 </r>
       <r>   21.5250    0.0000 </r>
       <r>   23.6678    0.0000 </r>
       <r>   25.0387    0.0000 </r>
      </set>
      <set comment="kpoint 14">
       <r>   -6.4252    1.0000 </r>
       <r>    0.1961    1.0000 </r>
       <r>    3.5067    1.0000 </r>
       <r>    4.6462    1.0000 </r>
       <r>    8.6804    0.0000 </r>
       <r>    9.8763    0.0000 </r>
       <r>   10.0361    0.0000 </r>
       <r>   13.2565    0.0000 </r>
       <r>   13.2930    0.0000 </r>
       <r>   15.8435    0.0000 </r>
       <r>   16.3440    0.0000 </r>
       <r>   19.5329    0.0000 </r>
       <r>   21.0307    0.0000 </r>
       <r>   22.7046    0.0000 </r>
       <r>   23.0278    0.0000 </r>
       <r>   24.7749    0.0000 </r>
      </set>
      <set comment="kpoint 15">
       <r>   -7.0633    1.0000 </r>
       <r>    1.9457    1.0000 </r>
       <r>    3.8393    1.0000 </r>
       <r>    5.0470    1.0000 </r>
       <r>    9.0010    0.0000 </r>
       <r>    9.5882    0.0000 </r>
       <r>    9.9205    0.0000 </r>
       <r>   12.3539    0.0000 </r>
       <r>   12.8183    0.0000 </r>
       <r>   14.8394    0.0000 </r>
       <r>   16.1898    0.0000 </r>
       <r>   17.8956    0.0000 </r>
       <r>   19.8311    0.0000 </r>
       <r>   21.7758    0.0000 </r>
       <r>   24.0956    0.0000 </r>
       <r>   25.2048    0.0000 </r>
      </set>
      <set comment="kpoint 16">
       <r>   -7.4946    1.0000 </r>
       <r>    3.5882    1.0000 </r>
       <r>    4.4586    1.0000 </r>
       <r>    5.3444    1.0000 </r>
       <r>    9.1516    0.0000 </r>
       <r>    9.2564    0.0000 </r>
       <r>    9.2924    0.0000 </r>
       <r>   11.5024    0.0000 </r>
       <r>   13.1868    0.0000 </r>
       <r>   14.1307    0.0000 </r>
       <r>   15.4927    0.0000 </r>
       <r>   17.6443    0.0000 </r>
       <r>   18.4163    0.0000 </r>
       <r>   19.9637    0.0000 </r>
       <r>   23.6336    0.0000 </r>
       <r>   26.6525    0.0000 </r>
      </set>
      <set comment="kpoint 17">
       <r>   -7.1744    1.0000 </r>
       <r>    3.0268    1.0000 </r>
       <r>    4.0704    1.0000 </r>
       <r>    4.0704    1.0000 </r>
       <r>    7.7446    0.0000 </r>
       <r>   10.4953    0.0000 </r>
       <r>   10.9968    0.0000 </r>
       <r>   10.9968    0.0000 </r>
       <r>   13.3662    0.0000 </r>
       <r>   14.9688    0.0000 </r>
       <r>   16.5370    0.0000 </r>
       <r>   18.8840    0.0000 </r>
       <r>   18.8840    0.0000 </r>
       <r>   19.4436    0.0000 </r>
       <r>   25.5711    0.0000 </r>
       <r>   26.1163    0.0000 </r>
      </set>
      <set comment="kpoint 18">
       <r>   -6.7430    1.0000 </r>
       <r>    1.7185    1.0000 </r>
       <r>    3.6274    1.0000 </r>
       <r>    3.6842    1.0000 </r>
       <r>    7.7857    0.0000 </r>
       <r>   10.0194    0.0000 </r>
       <r>   11.2948    0.0000 </r>
       <r>   11.6307    0.0000 </r>
       <r>   14.7198    0.0000 </r>
       <r>   15.3120    0.0000 </r>
       <r>   17.3527    0.0000 </r>
       <r>   18.7985    0.0000 </r>
       <r>   19.8842    0.0000 </r>
       <r>   21.1694    0.0000 </r>
       <r>   23.9690    0.0000 </r>
       <r>   24.4781    0.0000 </r>
      </set>
      <set comment="kpoint 19">
       <r>   -6.1053    1.0000 </r>
       <r>    0.1657    1.0000 </r>
       <r>    3.0511    1.0000 </r>
       <r>    3.4597    1.0000 </r>
       <r>    8.0400    0.0000 </r>
       <r>   10.4001    0.0000 </r>
       <r>   11.0803    0.0000 </r>
       <r>   11.6986    0.0000 </r>
       <r>   16.2005    0.0000 </r>
       <r>   16.5476    0.0000 </r>
       <r>   17.1067    0.0000 </r>
       <r>   20.0217    0.0000 </r>
       <r>   20.3934    0.0000 </r>
       <r>   22.0586    0.0000 </r>
       <r>   22.7584    0.0000 </r>
       <r>   24.1103    0.0000 </r>
      </set>
      <set comment="kpoint 20">
       <r>   -5.3432    1.0000 </r>
       <r>   -1.2356    1.0000 </r>
       <r>    2.5206    1.0000 </r>
       <r>    3.4193    1.0000 </r>
       <r>    8.0920    0.0000 </r>
       <r>   10.8186    0.0000 </r>
       <r>   11.4107    0.0000 </r>
       <r>   11.7259    0.0000 </r>
       <r>   16.5142    0.0000 </r>
       <r>   17.6178    0.0000 </r>
       <r>   18.4283    0.0000 </r>
       <r>   18.5263    0.0000 </r>
       <r>   19.5924    0.0000 </r>
       <r>   22.9936    0.0000 </r>
       <r>   24.5694    0.0000 </r>
       <r>   25.1159    0.0000 </r>
      </set>
      <set comment="kpoint 21">
       <r>   -4.7999    1.0000 </r>
       <r>   -2.0399    1.0000 </r>
       <r>    2.1431    1.0000 </r>
       <r>    3.5627    1.0000 </r>
       <r>    8.2108    0.0000 </r>
       <r>   10.6741    0.0000 </r>
       <r>   11.0966    0.0000 </r>
       <r>   13.4721    0.0000 </r>
       <r>   15.7455    0.0000 </r>
       <r>   16.2261    0.0000 </r>
       <r>   18.1419    0.0000 </r>
       <r>   19.6793    0.0000 </r>
       <r>   20.4879    0.0000 </r>
       <r>   22.7875    0.0000 </r>
       <r>   25.6762    0.0000 </r>
       <r>   25.9350    0.0000 </r>
      </set>
      <set comment="kpoint 22">
       <r>   -5.1209    1.0000 </r>
       <r>   -1.5739    1.0000 </r>
       <r>    1.9699    1.0000 </r>
       <r>    3.8710    1.0000 </r>
       <r>    8.4981    0.0000 </r>
       <r>   10.6472    0.0000 </r>
       <r>   10.8697    0.0000 </r>
       <r>   14.3594    0.0000 </r>
       <r>   14.3625    0.0000 </r>
       <r>   15.3469    0.0000 </r>
       <r>   17.9675    0.0000 </r>
       <r>   20.8189    0.0000 </r>
       <r>   21.7761    0.0000 </r>
       <r>   21.9877    0.0000 </r>
       <r>   23.3603    0.0000 </r>
       <r>   25.7380    0.0000 </r>
      </set>
      <set comment="kpoint 23">
       <r>   -5.8746    1.0000 </r>
       <r>   -0.3095    1.0000 </r>
       <r>    2.0611    1.0000 </r>
       <r>    4.3002    1.0000 </r>
       <r>    8.9184    0.0000 </r>
       <r>   10.6402    0.0000 </r>
       <r>   10.6761    0.0000 </r>
       <r>   12.8909    0.0000 </r>
       <r>   12.9795    0.0000 </r>
       <r>   16.7955    0.0000 </r>
       <r>   18.6848    0.0000 </r>
       <r>   18.8886    0.0000 </r>
       <r>   20.6076    0.0000 </r>
       <r>   22.7640    0.0000 </r>
       <r>   23.7542    0.0000 </r>
       <r>   24.7511    0.0000 </r>
      </set>
      <set comment="kpoint 24">
       <r>   -6.5639    1.0000 </r>
       <r>    1.0367    1.0000 </r>
       <r>    2.6026    1.0000 </r>
       <r>    4.7553    1.0000 </r>
       <r>    9.3107    0.0000 </r>
       <r>   10.1253    0.0000 </r>
       <r>   10.3251    0.0000 </r>
       <r>   12.1571    0.0000 </r>
       <r>   12.4918    0.0000 </r>
       <r>   16.7881    0.0000 </r>
       <r>   17.2610    0.0000 </r>
       <r>   18.2718    0.0000 </r>
       <r>   20.5322    0.0000 </r>
       <r>   21.7807    0.0000 </r>
       <r>   23.5089    0.0000 </r>
       <r>   25.6918    0.0000 </r>
      </set>
      <set comment="kpoint 25">
       <r>   -6.3848    1.0000 </r>
       <r>    1.2046    1.0000 </r>
       <r>    3.2594    1.0000 </r>
       <r>    3.2594    1.0000 </r>
       <r>    7.0956    0.0000 </r>
       <r>    9.0213    0.0000 </r>
       <r>   12.7044    0.0000 </r>
       <r>   12.7044    0.0000 </r>
       <r>   15.2631    0.0000 </r>
       <r>   15.8164    0.0000 </r>
       <r>   18.5151    0.0000 </r>
       <r>   20.0312    0.0000 </r>
       <r>   20.0312    0.0000 </r>
       <r>   20.6859    0.0000 </r>
       <r>   23.8418    0.0000 </r>
       <r>   23.8418    0.0000 </r>
      </set>
      <set comment="kpoint 26">
       <r>   -5.8110    1.0000 </r>
       <r>    0.1226    1.0000 </r>
       <r>    2.6801    1.0000 </r>
       <r>    2.9968    1.0000 </r>
       <r>    7.2283    0.0000 </r>
       <r>    8.7046    0.0000 </r>
       <r>   13.0216    0.0000 </r>
       <r>   13.1936    0.0000 </r>
       <r>   16.6235    0.0000 </r>
       <r>   16.8215    0.0000 </r>
       <r>   18.8177    0.0000 </r>
       <r>   20.2672    0.0000 </r>
       <r>   20.5010    0.0000 </r>
       <r>   21.6550    0.0000 </r>
       <r>   22.5974    0.0000 </r>
       <r>   23.5280    0.0000 </r>
      </set>
      <set comment="kpoint 27">
       <r>   -5.0719    1.0000 </r>
       <r>   -1.0432    1.0000 </r>
       <r>    1.8845    1.0000 </r>
       <r>    2.9254    1.0000 </r>
       <r>    7.4464    0.0000 </r>
       <r>    9.5135    0.0000 </r>
       <r>   12.8523    0.0000 </r>
       <r>   13.0236    0.0000 </r>
       <r>   17.8447    0.0000 </r>
       <r>   18.0610    0.0000 </r>
       <r>   18.5362    0.0000 </r>
       <r>   18.8179    0.0000 </r>
       <r>   20.3637    0.0000 </r>
       <r>   22.4942    0.0000 </r>
       <r>   23.6514    0.0000 </r>
       <r>   25.3363    0.0000 </r>
      </set>
      <set comment="kpoint 28">
       <r>   -4.3804    1.0000 </r>
       <r>   -1.9515    1.0000 </r>
       <r>    1.2448    1.0000 </r>
       <r>    3.0500    1.0000 </r>
       <r>    7.5966    0.0000 </r>
       <r>   11.0893    0.0000 </r>
       <r>   12.6681    0.0000 </r>
       <r>   12.6894    0.0000 </r>
       <r>   16.2665    0.0000 </r>
       <r>   16.2793    0.0000 </r>
       <r>   19.7590    0.0000 </r>
       <r>   20.0760    0.0000 </r>
       <r>   20.7760    0.0000 </r>
       <r>   24.5706    0.0000 </r>
       <r>   24.7415    0.0000 </r>
       <r>   25.1650    0.0000 </r>
      </set>
      <set comment="kpoint 29">
       <r>   -4.4425    1.0000 </r>
       <r>   -1.8623    1.0000 </r>
       <r>    0.9235    1.0000 </r>
       <r>    3.3564    1.0000 </r>
       <r>    7.9167    0.0000 </r>
       <r>   12.2169    0.0000 </r>
       <r>   12.3157    0.0000 </r>
       <r>   13.3410    0.0000 </r>
       <r>   14.3679    0.0000 </r>
       <r>   14.4892    0.0000 </r>
       <r>   19.7071    0.0000 </r>
       <r>   22.0831    0.0000 </r>
       <r>   22.1730    0.0000 </r>
       <r>   22.9633    0.0000 </r>
       <r>   23.6916    0.0000 </r>
       <r>   24.9758    0.0000 </r>
      </set>
      <set comment="kpoint 30">
       <r>   -5.1562    1.0000 </r>
       <r>   -1.0034    1.0000 </r>
       <r>    1.1053    1.0000 </r>
       <r>    3.8045    1.0000 </r>
       <r>    8.4112    0.0000 </r>
       <r>   11.7104    0.0000 </r>
       <r>   11.9293    0.0000 </r>
       <r>   13.0094    0.0000 </r>
       <r>   13.1493    0.0000 </r>
       <r>   15.4177    0.0000 </r>
       <r>   19.7337    0.0000 </r>
       <r>   20.3347    0.0000 </r>
       <r>   21.3117    0.0000 </r>
       <r>   23.8554    0.0000 </r>
       <r>   24.1451    0.0000 </r>
       <r>   24.3940    0.0000 </r>
      </set>
      <set comment="kpoint 31">
       <r>   -5.3006    1.0000 </r>
       <r>   -0.6256    1.0000 </r>
       <r>    2.6863    1.0000 </r>
       <r>    2.6863    1.0000 </r>
       <r>    6.7052    0.0000 </r>
       <r>    7.7942    0.0000 </r>
       <r>   14.5033    0.0000 </r>
       <r>   14.5033    0.0000 </r>
       <r>   16.9932    0.0000 </r>
       <r>   17.3269    0.0000 </r>
       <r>   20.1333    0.0000 </r>
       <r>   20.1333    0.0000 </r>
       <r>   20.2731    0.0000 </r>
       <r>   22.3930    0.0000 </r>
       <r>   22.4000    0.0000 </r>
       <r>   23.3551    0.0000 </r>
      </set>
      <set comment="kpoint 32">
       <r>   -4.6032    1.0000 </r>
       <r>   -1.5467    1.0000 </r>
       <r>    2.1108    1.0000 </r>
       <r>    2.5667    1.0000 </r>
       <r>    6.9244    0.0000 </r>
       <r>    7.8053    0.0000 </r>
       <r>   14.8321    0.0000 </r>
       <r>   14.8569    0.0000 </r>
       <r>   18.2409    0.0000 </r>
       <r>   18.4571    0.0000 </r>
       <r>   18.6237    0.0000 </r>
       <r>   18.9436    0.0000 </r>
       <r>   21.4643    0.0000 </r>
       <r>   22.0565    0.0000 </r>
       <r>   22.4305    0.0000 </r>
       <r>   24.5514    0.0000 </r>
      </set>
      <set comment="kpoint 33">
       <r>   -3.8442    1.0000 </r>
       <r>   -2.3559    1.0000 </r>
       <r>    1.2559    1.0000 </r>
       <r>    2.6480    1.0000 </r>
       <r>    7.1108    0.0000 </r>
       <r>    9.0827    0.0000 </r>
       <r>   14.5229    0.0000 </r>
       <r>   14.7035    0.0000 </r>
       <r>   16.5056    0.0000 </r>
       <r>   16.5537    0.0000 </r>
       <r>   20.2161    0.0000 </r>
       <r>   20.7339    0.0000 </r>
       <r>   22.0288    0.0000 </r>
       <r>   22.3779    0.0000 </r>
       <r>   22.9964    0.0000 </r>
       <r>   24.9628    0.0000 </r>
      </set>
      <set comment="kpoint 34">
       <r>   -3.7686    1.0000 </r>
       <r>   -2.3937    1.0000 </r>
       <r>    0.7137    1.0000 </r>
       <r>    2.9220    1.0000 </r>
       <r>    7.4145    0.0000 </r>
       <r>   10.9345    0.0000 </r>
       <r>   13.8431    0.0000 </r>
       <r>   14.3334    0.0000 </r>
       <r>   14.7212    0.0000 </r>
       <r>   14.8258    0.0000 </r>
       <r>   21.6227    0.0000 </r>
       <r>   22.1298    0.0000 </r>
       <r>   22.3271    0.0000 </r>
       <r>   22.5249    0.0000 </r>
       <r>   22.8527    0.0000 </r>
       <r>   24.5607    0.0000 </r>
      </set>
      <set comment="kpoint 35">
       <r>   -3.9482    1.0000 </r>
       <r>   -2.3695    1.0000 </r>
       <r>    2.3930    1.0000 </r>
       <r>    2.3930    1.0000 </r>
       <r>    6.6584    0.0000 </r>
       <r>    7.0082    0.0000 </r>
       <r>   16.3409    0.0000 </r>
       <r>   16.3409    0.0000 </r>
       <r>   18.4180    0.0000 </r>
       <r>   18.4180    0.0000 </r>
       <r>   18.4904    0.0000 </r>
       <r>   19.1939    0.0000 </r>
       <r>   20.2975    0.0000 </r>
       <r>   20.5074    0.0000 </r>
       <r>   24.5926    0.0000 </r>
       <r>   25.4065    0.0000 </r>
      </set>
      <set comment="kpoint 36">
       <r>   -3.2209    1.0000 </r>
       <r>   -3.0957    1.0000 </r>
       <r>    1.9238    1.0000 </r>
       <r>    2.4210    1.0000 </r>
       <r>    6.8531    0.0000 </r>
       <r>    7.4702    0.0000 </r>
       <r>   16.2906    0.0000 </r>
       <r>   16.5841    0.0000 </r>
       <r>   16.9009    0.0000 </r>
       <r>   17.0280    0.0000 </r>
       <r>   20.0507    0.0000 </r>
       <r>   20.1243    0.0000 </r>
       <r>   20.3618    0.0000 </r>
       <r>   20.9225    0.0000 </r>
       <r>   24.7346    0.0000 </r>
       <r>   24.9710    0.0000 </r>
      </set>
      <set comment="kpoint 37">
       <r>   -7.0206    1.0000 </r>
       <r>    2.2131    1.0000 </r>
       <r>    3.5342    1.0000 </r>
       <r>    4.6232    1.0000 </r>
       <r>    8.5355    0.0000 </r>
       <r>   10.0150    0.0000 </r>
       <r>   10.7599    0.0000 </r>
       <r>   11.1331    0.0000 </r>
       <r>   13.5930    0.0000 </r>
       <r>   15.0702    0.0000 </r>
       <r>   16.7560    0.0000 </r>
       <r>   18.0887    0.0000 </r>
       <r>   19.3550    0.0000 </r>
       <r>   21.3900    0.0000 </r>
       <r>   24.0835    0.0000 </r>
       <r>   25.6811    0.0000 </r>
      </set>
      <set comment="kpoint 38">
       <r>   -6.4483    1.0000 </r>
       <r>    0.7255    1.0000 </r>
       <r>    2.9132    1.0000 </r>
       <r>    4.2705    1.0000 </r>
       <r>    8.8755    0.0000 </r>
       <r>    9.9301    0.0000 </r>
       <r>   11.0878    0.0000 </r>
       <r>   11.2730    0.0000 </r>
       <r>   14.1280    0.0000 </r>
       <r>   16.6647    0.0000 </r>
       <r>   16.9484    0.0000 </r>
       <r>   18.9600    0.0000 </r>
       <r>   20.7185    0.0000 </r>
       <r>   22.0618    0.0000 </r>
       <r>   22.9623    0.0000 </r>
       <r>   24.9666    0.0000 </r>
      </set>
      <set comment="kpoint 39">
       <r>   -5.7116    1.0000 </r>
       <r>   -0.7939    1.0000 </r>
       <r>    2.6284    1.0000 </r>
       <r>    3.8865    1.0000 </r>
       <r>    8.9342    0.0000 </r>
       <r>    9.6390    0.0000 </r>
       <r>   11.2236    0.0000 </r>
       <r>   12.1806    0.0000 </r>
       <r>   15.2803    0.0000 </r>
       <r>   16.4125    0.0000 </r>
       <r>   18.5231    0.0000 </r>
       <r>   18.7128    0.0000 </r>
       <r>   21.0774    0.0000 </r>
       <r>   22.1699    0.0000 </r>
       <r>   23.6902    0.0000 </r>
       <r>   24.9226    0.0000 </r>
      </set>
      <set comment="kpoint 40">
       <r>   -5.0211    1.0000 </r>
       <r>   -1.9053    1.0000 </r>
       <r>    2.5189    1.0000 </r>
       <r>    3.6488    1.0000 </r>
       <r>    8.9322    0.0000 </r>
       <r>    9.3803    0.0000 </r>
       <r>   11.1406    0.0000 </r>
       <r>   13.7748    0.0000 </r>
       <r>   15.3772    0.0000 </r>
       <r>   16.5214    0.0000 </r>
       <r>   17.8839    0.0000 </r>
       <r>   19.4030    0.0000 </r>
       <r>   20.4940    0.0000 </r>
       <r>   22.3650    0.0000 </r>
       <r>   24.6441    0.0000 </r>
       <r>   26.4764    0.0000 </r>
      </set>
      <set comment="kpoint 41">
       <r>   -6.2416    1.0000 </r>
       <r>    0.7654    1.0000 </r>
       <r>    2.7301    1.0000 </r>
       <r>    3.5111    1.0000 </r>
       <r>    7.9147    0.0000 </r>
       <r>    9.5653    0.0000 </r>
       <r>   11.4317    0.0000 </r>
       <r>   12.5686    0.0000 </r>
       <r>   15.1613    0.0000 </r>
       <r>   16.7979    0.0000 </r>
       <r>   18.1532    0.0000 </r>
       <r>   19.1366    0.0000 </r>
       <r>   20.6474    0.0000 </r>
       <r>   22.1096    0.0000 </r>
       <r>   22.2030    0.0000 </r>
       <r>   24.4287    0.0000 </r>
      </set>
      <set comment="kpoint 42">
       <r>   -5.5504    1.0000 </r>
       <r>   -0.4567    1.0000 </r>
       <r>    2.0971    1.0000 </r>
       <r>    3.1632    1.0000 </r>
       <r>    8.3051    0.0000 </r>
       <r>    9.9923    0.0000 </r>
       <r>   11.0995    0.0000 </r>
       <r>   12.9807    0.0000 </r>
       <r>   16.0618    0.0000 </r>
       <r>   17.4668    0.0000 </r>
       <r>   18.8097    0.0000 </r>
       <r>   19.2227    0.0000 </r>
       <r>   20.9190    0.0000 </r>
       <r>   21.6575    0.0000 </r>
       <r>   23.1761    0.0000 </r>
       <r>   25.1985    0.0000 </r>
      </set>
      <set comment="kpoint 43">
       <r>   -4.7945    1.0000 </r>
       <r>   -1.5998    1.0000 </r>
       <r>    1.6697    1.0000 </r>
       <r>    2.9883    1.0000 </r>
       <r>    8.4508    0.0000 </r>
       <r>   10.5977    0.0000 </r>
       <r>   11.5362    0.0000 </r>
       <r>   12.9316    0.0000 </r>
       <r>   15.7380    0.0000 </r>
       <r>   17.4683    0.0000 </r>
       <r>   18.4889    0.0000 </r>
       <r>   19.7476    0.0000 </r>
       <r>   20.8338    0.0000 </r>
       <r>   23.2451    0.0000 </r>
       <r>   24.9490    0.0000 </r>
       <r>   25.4646    0.0000 </r>
      </set>
      <set comment="kpoint 44">
       <r>   -4.4934    1.0000 </r>
       <r>   -1.9961    1.0000 </r>
       <r>    1.4113    1.0000 </r>
       <r>    3.0884    1.0000 </r>
       <r>    8.6852    0.0000 </r>
       <r>   10.3329    0.0000 </r>
       <r>   12.7761    0.0000 </r>
       <r>   13.3296    0.0000 </r>
       <r>   13.8782    0.0000 </r>
       <r>   16.7573    0.0000 </r>
       <r>   18.8363    0.0000 </r>
       <r>   19.9172    0.0000 </r>
       <r>   22.7305    0.0000 </r>
       <r>   23.1667    0.0000 </r>
       <r>   24.2243    0.0000 </r>
       <r>   25.4031    0.0000 </r>
      </set>
      <set comment="kpoint 45">
       <r>   -5.0635    1.0000 </r>
       <r>   -1.2150    1.0000 </r>
       <r>    1.3982    1.0000 </r>
       <r>    3.4181    1.0000 </r>
       <r>    9.0867    0.0000 </r>
       <r>   10.1290    0.0000 </r>
       <r>   12.0178    0.0000 </r>
       <r>   12.6893    0.0000 </r>
       <r>   15.1278    0.0000 </r>
       <r>   15.4925    0.0000 </r>
       <r>   19.0139    0.0000 </r>
       <r>   21.1522    0.0000 </r>
       <r>   21.3558    0.0000 </r>
       <r>   22.0297    0.0000 </r>
       <r>   24.5653    0.0000 </r>
       <r>   24.8676    0.0000 </r>
      </set>
      <set comment="kpoint 46">
       <r>   -5.8212    1.0000 </r>
       <r>   -0.1048    1.0000 </r>
       <r>    1.8220    1.0000 </r>
       <r>    3.8773    1.0000 </r>
       <r>    9.5882    0.0000 </r>
       <r>    9.6839    0.0000 </r>
       <r>   11.0229    0.0000 </r>
       <r>   12.2274    0.0000 </r>
       <r>   14.1313    0.0000 </r>
       <r>   17.2360    0.0000 </r>
       <r>   18.8793    0.0000 </r>
       <r>   19.1729    0.0000 </r>
       <r>   20.1923    0.0000 </r>
       <r>   22.5943    0.0000 </r>
       <r>   23.2584    0.0000 </r>
       <r>   25.8748    0.0000 </r>
      </set>
      <set comment="kpoint 47">
       <r>   -5.1777    1.0000 </r>
       <r>   -0.7808    1.0000 </r>
       <r>    2.1911    1.0000 </r>
       <r>    2.6148    1.0000 </r>
       <r>    7.5220    0.0000 </r>
       <r>    8.4372    0.0000 </r>
       <r>   12.9245    0.0000 </r>
       <r>   14.4615    0.0000 </r>
       <r>   16.8975    0.0000 </r>
       <r>   18.0982    0.0000 </r>
       <r>   18.7780    0.0000 </r>
       <r>   20.1529    0.0000 </r>
       <r>   20.9050    0.0000 </r>
       <r>   21.5076    0.0000 </r>
       <r>   23.0400    0.0000 </r>
       <r>   23.7884    0.0000 </r>
      </set>
      <set comment="kpoint 48">
       <r>   -4.4131    1.0000 </r>
       <r>   -1.7104    1.0000 </r>
       <r>    1.4825    1.0000 </r>
       <r>    2.4199    1.0000 </r>
       <r>    7.8944    0.0000 </r>
       <r>    9.3154    0.0000 </r>
       <r>   12.5378    0.0000 </r>
       <r>   14.8518    0.0000 </r>
       <r>   16.0304    0.0000 </r>
       <r>   18.0543    0.0000 </r>
       <r>   18.9425    0.0000 </r>
       <r>   20.8149    0.0000 </r>
       <r>   21.2850    0.0000 </r>
       <r>   22.0366    0.0000 </r>
       <r>   24.0136    0.0000 </r>
       <r>   24.5760    0.0000 </r>
      </set>
      <set comment="kpoint 49">
       <r>   -3.8830    1.0000 </r>
       <r>   -2.2751    1.0000 </r>
       <r>    0.8992    1.0000 </r>
       <r>    2.5510    1.0000 </r>
       <r>    8.1279    0.0000 </r>
       <r>   10.9889    0.0000 </r>
       <r>   12.2320    0.0000 </r>
       <r>   13.9384    0.0000 </r>
       <r>   14.7462    0.0000 </r>
       <r>   16.9096    0.0000 </r>
       <r>   20.0493    0.0000 </r>
       <r>   20.9750    0.0000 </r>
       <r>   22.6822    0.0000 </r>
       <r>   23.0641    0.0000 </r>
       <r>   24.1099    0.0000 </r>
       <r>   25.2540    0.0000 </r>
      </set>
      <set comment="kpoint 50">
       <r>   -4.3176    1.0000 </r>
       <r>   -1.8230    1.0000 </r>
       <r>    0.7826    1.0000 </r>
       <r>    2.9122    1.0000 </r>
       <r>    8.5348    0.0000 </r>
       <r>   11.4762    0.0000 </r>
       <r>   12.2953    0.0000 </r>
       <r>   13.2475    0.0000 </r>
       <r>   14.2669    0.0000 </r>
       <r>   15.4541    0.0000 </r>
       <r>   20.8784    0.0000 </r>
       <r>   21.3400    0.0000 </r>
       <r>   21.5916    0.0000 </r>
       <r>   23.6634    0.0000 </r>
       <r>   23.6949    0.0000 </r>
       <r>   24.8545    0.0000 </r>
      </set>
      <set comment="kpoint 51">
       <r>   -3.8647    1.0000 </r>
       <r>   -2.3654    1.0000 </r>
       <r>    1.9704    1.0000 </r>
       <r>    2.1014    1.0000 </r>
       <r>    7.4441    0.0000 </r>
       <r>    7.7348    0.0000 </r>
       <r>   14.5679    0.0000 </r>
       <r>   16.1885    0.0000 </r>
       <r>   16.5959    0.0000 </r>
       <r>   18.2470    0.0000 </r>
       <r>   18.9381    0.0000 </r>
       <r>   20.4781    0.0000 </r>
       <r>   20.7805    0.0000 </r>
       <r>   22.3888    0.0000 </r>
       <r>   23.3378    0.0000 </r>
       <r>   24.8507    0.0000 </r>
      </set>
      <set comment="kpoint 52">
       <r>   -3.2937    1.0000 </r>
       <r>   -2.8698    1.0000 </r>
       <r>    1.2453    1.0000 </r>
       <r>    2.1854    1.0000 </r>
       <r>    7.7486    0.0000 </r>
       <r>    9.0947    0.0000 </r>
       <r>   14.0805    0.0000 </r>
       <r>   14.3118    0.0000 </r>
       <r>   16.5076    0.0000 </r>
       <r>   17.1663    0.0000 </r>
       <r>   19.9208    0.0000 </r>
       <r>   20.7522    0.0000 </r>
       <r>   22.5082    0.0000 </r>
       <r>   23.2776    0.0000 </r>
       <r>   23.6123    0.0000 </r>
       <r>   23.8477    0.0000 </r>
      </set>
      <set comment="kpoint 53">
       <r>   -4.8280    1.0000 </r>
       <r>   -1.2271    1.0000 </r>
       <r>    1.3582    1.0000 </r>
       <r>    2.6560    1.0000 </r>
       <r>    9.3218    0.0000 </r>
       <r>    9.9501    0.0000 </r>
       <r>   10.7262    0.0000 </r>
       <r>   14.3246    0.0000 </r>
       <r>   15.6756    0.0000 </r>
       <r>   16.2543    0.0000 </r>
       <r>   20.3243    0.0000 </r>
       <r>   20.9039    0.0000 </r>
       <r>   20.9563    0.0000 </r>
       <r>   21.5363    0.0000 </r>
       <r>   23.6711    0.0000 </r>
       <r>   25.0231    0.0000 </r>
      </set>
      <set comment="kpoint 54">
       <r>   -4.1133    1.0000 </r>
       <r>   -2.0192    1.0000 </r>
       <r>    1.0434    1.0000 </r>
       <r>    2.3010    1.0000 </r>
       <r>    9.6827    0.0000 </r>
       <r>   10.1319    0.0000 </r>
       <r>   11.5176    0.0000 </r>
       <r>   13.5322    0.0000 </r>
       <r>   14.8225    0.0000 </r>
       <r>   17.4826    0.0000 </r>
       <r>   19.4532    0.0000 </r>
       <r>   20.6901    0.0000 </r>
       <r>   22.4300    0.0000 </r>
       <r>   23.4403    0.0000 </r>
       <r>   23.8723    0.0000 </r>
       <r>   25.6545    0.0000 </r>
      </set>
      <set comment="kpoint 55">
       <r>   -3.6533    1.0000 </r>
       <r>   -2.4128    1.0000 </r>
       <r>    1.2980    1.0000 </r>
       <r>    1.7226    1.0000 </r>
       <r>    9.2208    0.0000 </r>
       <r>    9.4315    0.0000 </r>
       <r>   12.0950    0.0000 </r>
       <r>   13.7949    0.0000 </r>
       <r>   16.4280    0.0000 </r>
       <r>   17.9693    0.0000 </r>
       <r>   19.3450    0.0000 </r>
       <r>   20.6921    0.0000 </r>
       <r>   22.3511    0.0000 </r>
       <r>   23.4886    0.0000 </r>
       <r>   23.7754    0.0000 </r>
       <r>   25.0978    0.0000 </r>
      </set>
      <set comment="kpoint 56">
       <r>   -3.4267    1.0000 </r>
       <r>   -2.5990    1.0000 </r>
       <r>    0.9852    1.0000 </r>
       <r>    1.7652    1.0000 </r>
       <r>    9.5848    0.0000 </r>
       <r>   10.9217    0.0000 </r>
       <r>   11.8464    0.0000 </r>
       <r>   11.9084    0.0000 </r>
       <r>   16.4514    0.0000 </r>
       <r>   17.5895    0.0000 </r>
       <r>   19.6722    0.0000 </r>
       <r>   20.8886    0.0000 </r>
       <r>   22.4067    0.0000 </r>
       <r>   23.4514    0.0000 </r>
       <r>   25.0366    0.0000 </r>
       <r>   25.3602    0.0000 </r>
      </set>
     </set>
    </set>
   </array>
  </eigenvalues>
  <separator name="orbital magnetization" >
   <v name="MAGDIPOLOUT">      0.00000000      0.00000000      0.00000000</v>
  </separator>
  <dielectricfunction>
   <imag>
    <array>
     <dimension dim="1">gridpoints</dimension>
     <field>energy</field>
     <field>xx</field>
     <field>yy</field>
     <field>zz</field>
     <field>xy</field>
     <field>yz</field>
     <field>zx</field>
     <set>
      <r>     0.0000     0.0000     0.0000     0.0000     0.0000     0.0000     0.0000 </r>
      <r>     0.0229     0.0019     0.0019     0.0019    -0.0000    -0.0000     0.0000 </r>
      <r>     0.0457     0.0039     0.0039     0.0039    -0.0000    -0.0000     0.0000 </r>
      <r>     0.0686     0.0058     0.0058     0.0058    -0.0000    -0.0000     0.0000 </r>
      <r>     0.0915     0.0078     0.0078     0.0078    -0.0000    -0.0000     0.0000 </r>
      <r>     0.1144     0.0097     0.0097     0.0097    -0.0000    -0.0000     0.0000 </r>
      <r>     0.1372     0.0116     0.0116     0.0116    -0.0000    -0.0000     0.0000 </r>
      <r>     0.1601     0.0136     0.0136     0.0136    -0.0000    -0.0000     0.0000 </r>
      <r>     0.1830     0.0155     0.0155     0.0155    -0.0000    -0.0000     0.0000 </r>
      <r>     0.2058     0.0175     0.0175     0.0175    -0.0000    -0.0000     0.0000 </r>
      <r>     0.2287     0.0195     0.0195     0.0195    -0.0000    -0.0000     0.0000 </r>
      <r>     0.2516     0.0214     0.0214     0.0214    -0.0000    -0.0000     0.0000 </r>
      <r>     0.2744     0.0234     0.0234     0.0234    -0.0000    -0.0000     0.0000 </r>
      <r>     0.2973     0.0254     0.0254     0.0254    -0.0000    -0.0000     0.0000 </r>
      <r>     0.3202     0.0274     0.0274     0.0274    -0.0000    -0.0000     0.0000 </r>
      <r>     0.3431     0.0294     0.0294     0.0294    -0.0000    -0.0000     0.0000 </r>
      <r>     0.3659     0.0314     0.0314     0.0314    -0.0000    -0.0000     0.0000 </r>
      <r>     0.3888     0.0334     0.0334     0.0334    -0.0000    -0.0000     0.0000 </r>
      <r>     0.4117     0.0355     0.0355     0.0355    -0.0000    -0.0000     0.0000 </r>
      <r>     0.4345     0.0375     0.0375     0.0375    -0.0000    -0.0000     0.0000 </r>
      <r>     0.4574     0.0396     0.0396     0.0396    -0.0000    -0.0000     0.0000 </r>
      <r>     0.4803     0.0417     0.0417     0.0417    -0.0000    -0.0000     0.0000 </r>
      <r>     0.5032     0.0438     0.0438     0.0438    -0.0000    -0.0000     0.0000 </r>
      <r>     0.5260     0.0459     0.0459     0.0459    -0.0000    -0.0000     0.0000 </r>
      <r>     0.5489     0.0480     0.0480     0.0480    -0.0000    -0.0000     0.0000 </r>
      <r>     0.5718     0.0501     0.0501     0.0501    -0.0000    -0.0000     0.0000 </r>
      <r>     0.5946     0.0523     0.0523     0.0523    -0.0000    -0.0000     0.0000 </r>
      <r>     0.6175     0.0544     0.0544     0.0544    -0.0000    -0.0000     0.0000 </r>
      <r>     0.6404     0.0566     0.0566     0.0566    -0.0000    -0.0000     0.0000 </r>
      <r>     0.6632     0.0588     0.0588     0.0588    -0.0000    -0.0000     0.0000 </r>
      <r>     0.6861     0.0611     0.0611     0.0611    -0.0000    -0.0000     0.0000 </r>
      <r>     0.7090     0.0633     0.0633     0.0633    -0.0000    -0.0000     0.0000 </r>
      <r>     0.7319     0.0656     0.0656     0.0656    -0.0000    -0.0000     0.0000 </r>
      <r>     0.7547     0.0679     0.0679     0.0679    -0.0000    -0.0000     0.0000 </r>
      <r>     0.7776     0.0702     0.0702     0.0702    -0.0000    -0.0000     0.0000 </r>
      <r>     0.8005     0.0726     0.0726     0.0726    -0.0000    -0.0000     0.0000 </r>
      <r>     0.8233     0.0750     0.0750     0.0750    -0.0000    -0.0000     0.0000 </r>
      <r>     0.8462     0.0774     0.0774     0.0774    -0.0000    -0.0000     0.0000 </r>
      <r>     0.8691     0.0798     0.0798     0.0798    -0.0000    -0.0000     0.0000 </r>
      <r>     0.8919     0.0823     0.0823     0.0823    -0.0000    -0.0000     0.0000 </r>
      <r>     0.9148     0.0848     0.0848     0.0848    -0.0000    -0.0000     0.0000 </r>
      <r>     0.9377     0.0873     0.0873     0.0873    -0.0000    -0.0000     0.0000 </r>
      <r>     0.9606     0.0899     0.0899     0.0899    -0.0000    -0.0000     0.0000 </r>
      <r>     0.9834     0.0924     0.0924     0.0924    -0.0000    -0.0000     0.0000 </r>
      <r>     1.0063     0.0951     0.0951     0.0951    -0.0000    -0.0000     0.0000 </r>
      <r>     1.0292     0.0978     0.0978     0.0978    -0.0000    -0.0000     0.0000 </r>
      <r>     1.0520     0.1005     0.1005     0.1005    -0.0000    -0.0000     0.0000 </r>
      <r>     1.0749     0.1032     0.1032     0.1032    -0.0000    -0.0000     0.0000 </r>
      <r>     1.0978     0.1060     0.1060     0.1060    -0.0000    -0.0000     0.0000 </r>
      <r>     1.1207     0.1088     0.1088     0.1088    -0.0000    -0.0000     0.0000 </r>
      <r>     1.1435     0.1117     0.1117     0.1117    -0.0000    -0.0000     0.0000 </r>
      <r>     1.1664     0.1147     0.1147     0.1147    -0.0000    -0.0000     0.0000 </r>
      <r>     1.1893     0.1176     0.1176     0.1176    -0.0000    -0.0000     0.0000 </r>
      <r>     1.2121     0.1207     0.1207     0.1207    -0.0000    -0.0000     0.0000 </r>
      <r>     1.2350     0.1237     0.1237     0.1237    -0.0000    -0.0000     0.0000 </r>
      <r>     1.2579     0.1269     0.1269     0.1269    -0.0000    -0.0000     0.0000 </r>
      <r>     1.2807     0.1301     0.1301     0.1301    -0.0000    -0.0000     0.0000 </r>
      <r>     1.3036     0.1333     0.1333     0.1333    -0.0000    -0.0000     0.0000 </r>
      <r>     1.3265     0.1366     0.1366     0.1366    -0.0000    -0.0000     0.0000 </r>
      <r>     1.3494     0.1400     0.1400     0.1400    -0.0000    -0.0000     0.0000 </r>
      <r>     1.3722     0.1435     0.1435     0.1435    -0.0000    -0.0000     0.0000 </r>
      <r>     1.3951     0.1470     0.1470     0.1470    -0.0000    -0.0000     0.0000 </r>
      <r>     1.4180     0.1505     0.1505     0.1505    -0.0000    -0.0000     0.0000 </r>
      <r>     1.4408     0.1542     0.1542     0.1542    -0.0000    -0.0000     0.0000 </r>
      <r>     1.4637     0.1579     0.1579     0.1579    -0.0000    -0.0000     0.0000 </r>
      <r>     1.4866     0.1617     0.1617     0.1617    -0.0000    -0.0000     0.0000 </r>
      <r>     1.5095     0.1656     0.1656     0.1656    -0.0000    -0.0000     0.0000 </r>
      <r>     1.5323     0.1696     0.1696     0.1696    -0.0000    -0.0000     0.0000 </r>
      <r>     1.5552     0.1737     0.1737     0.1737    -0.0000    -0.0000     0.0000 </r>
      <r>     1.5781     0.1778     0.1778     0.1778    -0.0000    -0.0000     0.0000 </r>
      <r>     1.6009     0.1821     0.1821     0.1821    -0.0000    -0.0000     0.0000 </r>
      <r>     1.6238     0.1864     0.1864     0.1864    -0.0000    -0.0000     0.0000 </r>
      <r>     1.6467     0.1909     0.1909     0.1909    -0.0000    -0.0000     0.0000 </r>
      <r>     1.6695     0.1954     0.1954     0.1954    -0.0000    -0.0000     0.0000 </r>
      <r>     1.6924     0.2001     0.2001     0.2001    -0.0000    -0.0000     0.0000 </r>
      <r>     1.7153     0.2049     0.2049     0.2049    -0.0000    -0.0000     0.0000 </r>
      <r>     1.7382     0.2098     0.2098     0.2098    -0.0000    -0.0000     0.0000 </r>
      <r>     1.7610     0.2148     0.2148     0.2148    -0.0000    -0.0000     0.0000 </r>
      <r>     1.7839     0.2200     0.2200     0.2200    -0.0000    -0.0000     0.0000 </r>
      <r>     1.8068     0.2253     0.2253     0.2253    -0.0000    -0.0000     0.0000 </r>
      <r>     1.8296     0.2308     0.2308     0.2308    -0.0000    -0.0000     0.0000 </r>
      <r>     1.8525     0.2364     0.2364     0.2364    -0.0000    -0.0000     0.0000 </r>
      <r>     1.8754     0.2422     0.2422     0.2422    -0.0000    -0.0000     0.0000 </r>
      <r>     1.8982     0.2481     0.2481     0.2481    -0.0000    -0.0000     0.0000 </r>
      <r>     1.9211     0.2542     0.2542     0.2542    -0.0000    -0.0000     0.0000 </r>
      <r>     1.9440     0.2605     0.2605     0.2605    -0.0000    -0.0000     0.0000 </r>
      <r>     1.9669     0.2670     0.2670     0.2670    -0.0000    -0.0000     0.0000 </r>
      <r>     1.9897     0.2736     0.2736     0.2736    -0.0000    -0.0000     0.0000 </r>
      <r>     2.0126     0.2805     0.2805     0.2805    -0.0000    -0.0000     0.0000 </r>
      <r>     2.0355     0.2876     0.2876     0.2876    -0.0000    -0.0000     0.0000 </r>
      <r>     2.0583     0.2949     0.2949     0.2949    -0.0000    -0.0000     0.0000 </r>
      <r>     2.0812     0.3025     0.3025     0.3025    -0.0000    -0.0000     0.0000 </r>
      <r>     2.1041     0.3103     0.3103     0.3103    -0.0000    -0.0000     0.0000 </r>
      <r>     2.1270     0.3184     0.3184     0.3184    -0.0000    -0.0000     0.0000 </r>
      <r>     2.1498     0.3268     0.3268     0.3268    -0.0000    -0.0000     0.0000 </r>
      <r>     2.1727     0.3355     0.3355     0.3355    -0.0000    -0.0000     0.0000 </r>
      <r>     2.1956     0.3445     0.3445     0.3445    -0.0000    -0.0000     0.0000 </r>
      <r>     2.2184     0.3538     0.3538     0.3538    -0.0000    -0.0000     0.0000 </r>
      <r>     2.2413     0.3634     0.3634     0.3634    -0.0000    -0.0000     0.0000 </r>
      <r>     2.2642     0.3735     0.3735     0.3735    -0.0000    -0.0000     0.0000 </r>
      <r>     2.2870     0.3839     0.3839     0.3839    -0.0000    -0.0000     0.0000 </r>
      <r>     2.3099     0.3947     0.3947     0.3947    -0.0000    -0.0000     0.0000 </r>
      <r>     2.3328     0.4060     0.4060     0.4060    -0.0000    -0.0000     0.0000 </r>
      <r>     2.3557     0.4177     0.4177     0.4177    -0.0000    -0.0000     0.0000 </r>
      <r>     2.3785     0.4300     0.4300     0.4300    -0.0000    -0.0000     0.0000 </r>
      <r>     2.4014     0.4427     0.4427     0.4427    -0.0000    -0.0000     0.0000 </r>
      <r>     2.4243     0.4561     0.4561     0.4561    -0.0000    -0.0000     0.0000 </r>
      <r>     2.4471     0.4700     0.4700     0.4700    -0.0000    -0.0000     0.0000 </r>
      <r>     2.4700     0.4846     0.4846     0.4846    -0.0000    -0.0000     0.0000 </r>
      <r>     2.4929     0.4999     0.4999     0.4999    -0.0000    -0.0000     0.0000 </r>
      <r>     2.5158     0.5159     0.5159     0.5159    -0.0000    -0.0000     0.0000 </r>
      <r>     2.5386     0.5327     0.5327     0.5327    -0.0000    -0.0000     0.0000 </r>
      <r>     2.5615     0.5504     0.5504     0.5504    -0.0000    -0.0000     0.0000 </r>
      <r>     2.5844     0.5690     0.5690     0.5690    -0.0000    -0.0000     0.0000 </r>
      <r>     2.6072     0.5886     0.5886     0.5886    -0.0000    -0.0000     0.0000 </r>
      <r>     2.6301     0.6093     0.6093     0.6093    -0.0000    -0.0000     0.0000 </r>
      <r>     2.6530     0.6311     0.6311     0.6311    -0.0000    -0.0000     0.0000 </r>
      <r>     2.6758     0.6543     0.6543     0.6543    -0.0000    -0.0000     0.0000 </r>
      <r>     2.6987     0.6788     0.6788     0.6788    -0.0000    -0.0000     0.0000 </r>
      <r>     2.7216     0.7049     0.7049     0.7049    -0.0000    -0.0000     0.0000 </r>
      <r>     2.7445     0.7327     0.7327     0.7327    -0.0000    -0.0000     0.0000 </r>
      <r>     2.7673     0.7623     0.7623     0.7623    -0.0000    -0.0000     0.0000 </r>
      <r>     2.7902     0.7940     0.7940     0.7940    -0.0000    -0.0000     0.0000 </r>
      <r>     2.8131     0.8279     0.8279     0.8279    -0.0000    -0.0000     0.0000 </r>
      <r>     2.8359     0.8643     0.8643     0.8643    -0.0000    -0.0000     0.0000 </r>
      <r>     2.8588     0.9036     0.9036     0.9036    -0.0000    -0.0000     0.0000 </r>
      <r>     2.8817     0.9460     0.9460     0.9460    -0.0000    -0.0000     0.0000 </r>
      <r>     2.9045     0.9920     0.9920     0.9920    -0.0000    -0.0000     0.0000 </r>
      <r>     2.9274     1.0420     1.0420     1.0420    -0.0000    -0.0000     0.0000 </r>
      <r>     2.9503     1.0967     1.0967     1.0967    -0.0000    -0.0000     0.0000 </r>
      <r>     2.9732     1.1567     1.1567     1.1567    -0.0000    -0.0000     0.0000 </r>
      <r>     2.9960     1.2228     1.2228     1.2228    -0.0000    -0.0000     0.0000 </r>
      <r>     3.0189     1.2961     1.2961     1.2961    -0.0000    -0.0000     0.0000 </r>
      <r>     3.0418     1.3778     1.3778     1.3778    -0.0000    -0.0000     0.0000 </r>
      <r>     3.0646     1.4695     1.4695     1.4695    -0.0000    -0.0000     0.0000 </r>
      <r>     3.0875     1.5733     1.5733     1.5733    -0.0000    -0.0000     0.0000 </r>
      <r>     3.1104     1.6917     1.6917     1.6917    -0.0000    -0.0000     0.0000 </r>
      <r>     3.1333     1.8282     1.8282     1.8282    -0.0000    -0.0000     0.0000 </r>
      <r>     3.1561     1.9870     1.9870     1.9870    -0.0000    -0.0000     0.0000 </r>
      <r>     3.1790     2.1738     2.1738     2.1738    -0.0000    -0.0000     0.0000 </r>
      <r>     3.2019     2.3959     2.3959     2.3959    -0.0000    -0.0000     0.0000 </r>
      <r>     3.2247     2.6612     2.6612     2.6612    -0.0000    -0.0000     0.0000 </r>
      <r>     3.2476     2.9773     2.9773     2.9773    -0.0000    -0.0000     0.0000 </r>
      <r>     3.2705     3.3460     3.3460     3.3460    -0.0000    -0.0000     0.0000 </r>
      <r>     3.2933     3.7578     3.7578     3.7578    -0.0000    -0.0000     0.0000 </r>
      <r>     3.3162     4.1945     4.1945     4.1945    -0.0000    -0.0000     0.0000 </r>
      <r>     3.3391     4.6525     4.6525     4.6525    -0.0000    -0.0000     0.0000 </r>
      <r>     3.3620     5.1660     5.1660     5.1660    -0.0000    -0.0000     0.0000 </r>
      <r>     3.3848     5.8005     5.8005     5.8005    -0.0000    -0.0000     0.0000 </r>
      <r>     3.4077     6.6235     6.6235     6.6235    -0.0000    -0.0000     0.0000 </r>
      <r>     3.4306     7.6812     7.6812     7.6812    -0.0000    -0.0000     0.0000 </r>
      <r>     3.4534     8.9846     8.9846     8.9846    -0.0000    -0.0000     0.0000 </r>
      <r>     3.4763    10.5063    10.5063    10.5063    -0.0000    -0.0000     0.0000 </r>
      <r>     3.4992    12.1890    12.1890    12.1890    -0.0000    -0.0000     0.0000 </r>
      <r>     3.5221    13.9116    13.9116    13.9116    -0.0000    -0.0000     0.0000 </r>
      <r>     3.5449    15.4089    15.4089    15.4089    -0.0000    -0.0000     0.0000 </r>
      <r>     3.5678    16.3031    16.3031    16.3031    -0.0000    -0.0000     0.0000 </r>
      <r>     3.5907    16.3564    16.3564    16.3564    -0.0000    -0.0000     0.0000 </r>
      <r>     3.6135    15.7120    15.7120    15.7120    -0.0000    -0.0000     0.0000 </r>
      <r>     3.6364    14.7955    14.7955    14.7955    -0.0000    -0.0000     0.0000 </r>
      <r>     3.6593    13.9865    13.9865    13.9865    -0.0000    -0.0000     0.0000 </r>
      <r>     3.6821    13.4441    13.4441    13.4441    -0.0000    -0.0000     0.0000 </r>
      <r>     3.7050    13.1679    13.1679    13.1679    -0.0000    -0.0000     0.0000 </r>
      <r>     3.7279    13.1008    13.1008    13.1008    -0.0000    -0.0000     0.0000 </r>
      <r>     3.7508    13.1729    13.1729    13.1729    -0.0000    -0.0000     0.0000 </r>
      <r>     3.7736    13.3403    13.3403    13.3403    -0.0000    -0.0000     0.0000 </r>
      <r>     3.7965    13.6171    13.6171    13.6171    -0.0000    -0.0000     0.0000 </r>
      <r>     3.8194    14.0548    14.0548    14.0548    -0.0000    -0.0000     0.0000 </r>
      <r>     3.8422    14.7118    14.7118    14.7118    -0.0000    -0.0000     0.0000 </r>
      <r>     3.8651    15.6413    15.6413    15.6413    -0.0000    -0.0000     0.0000 </r>
      <r>     3.8880    16.8328    16.8328    16.8328    -0.0000    -0.0000     0.0000 </r>
      <r>     3.9108    18.1137    18.1137    18.1137    -0.0000    -0.0000     0.0000 </r>
      <r>     3.9337    19.1650    19.1650    19.1650    -0.0000    -0.0000     0.0000 </r>
      <r>     3.9566    19.7312    19.7312    19.7312    -0.0000    -0.0000     0.0000 </r>
      <r>     3.9795    19.8295    19.8295    19.8295    -0.0000    -0.0000     0.0000 </r>
      <r>     4.0023    19.6837    19.6837    19.6837    -0.0000    -0.0000     0.0000 </r>
      <r>     4.0252    19.4726    19.4726    19.4726    -0.0000    -0.0000     0.0000 </r>
      <r>     4.0481    19.2660    19.2660    19.2660    -0.0000    -0.0000     0.0000 </r>
      <r>     4.0709    19.1352    19.1352    19.1352    -0.0000    -0.0000     0.0000 </r>
      <r>     4.0938    19.1541    19.1541    19.1541    -0.0000    -0.0000     0.0000 </r>
      <r>     4.1167    19.3305    19.3305    19.3305    -0.0000    -0.0000     0.0000 </r>
      <r>     4.1396    19.6067    19.6067    19.6067    -0.0000    -0.0000     0.0000 </r>
      <r>     4.1624    19.9100    19.9100    19.9100    -0.0000    -0.0000     0.0000 </r>
      <r>     4.1853    20.2392    20.2392    20.2392    -0.0000    -0.0000     0.0000 </r>
      <r>     4.2082    20.6831    20.6831    20.6831    -0.0000    -0.0000     0.0000 </r>
      <r>     4.2310    21.3031    21.3031    21.3031    -0.0000    -0.0000     0.0000 </r>
      <r>     4.2539    22.0829    22.0829    22.0829    -0.0000    -0.0000     0.0000 </r>
      <r>     4.2768    23.0030    23.0030    23.0030    -0.0000    -0.0000     0.0000 </r>
      <r>     4.2996    24.0922    24.0922    24.0922    -0.0000    -0.0000     0.0000 </r>
      <r>     4.3225    25.4361    25.4361    25.4361    -0.0000    -0.0000     0.0000 </r>
      <r>     4.3454    27.1269    27.1269    27.1269    -0.0000    -0.0000     0.0000 </r>
      <r>     4.3683    29.1744    29.1744    29.1744    -0.0000    -0.0000     0.0000 </r>
      <r>     4.3911    31.4682    31.4682    31.4682    -0.0000    -0.0000     0.0000 </r>
      <r>     4.4140    33.7984    33.7984    33.7984    -0.0000    -0.0000     0.0000 </r>
      <r>     4.4369    35.9720    35.9720    35.9720    -0.0000    -0.0000     0.0000 </r>
      <r>     4.4597    37.9580    37.9580    37.9580    -0.0000    -0.0000     0.0000 </r>
      <r>     4.4826    39.8412    39.8412    39.8412    -0.0000    -0.0000     0.0000 </r>
      <r>     4.5055    41.6214    41.6214    41.6214    -0.0000    -0.0000     0.0000 </r>
      <r>     4.5284    43.0940    43.0940    43.0940    -0.0000    -0.0000     0.0000 </r>
      <r>     4.5512    43.9284    43.9284    43.9284    -0.0000    -0.0000     0.0000 </r>
      <r>     4.5741    43.8663    43.8663    43.8663    -0.0000    -0.0000     0.0000 </r>
      <r>     4.5970    42.7987    42.7987    42.7987    -0.0000    -0.0000     0.0000 </r>
      <r>     4.6198    40.6595    40.6595    40.6595    -0.0000    -0.0000     0.0000 </r>
      <r>     4.6427    37.4639    37.4639    37.4639    -0.0000    -0.0000     0.0000 </r>
      <r>     4.6656    33.4959    33.4959    33.4959    -0.0000    -0.0000     0.0000 </r>
      <r>     4.6884    29.2787    29.2787    29.2787    -0.0000    -0.0000     0.0000 </r>
      <r>     4.7113    25.3421    25.3421    25.3421    -0.0000    -0.0000     0.0000 </r>
      <r>     4.7342    22.0352    22.0352    22.0352    -0.0000    -0.0000     0.0000 </r>
      <r>     4.7571    19.4864    19.4864    19.4864    -0.0000    -0.0000     0.0000 </r>
      <r>     4.7799    17.6653    17.6653    17.6653    -0.0000    -0.0000     0.0000 </r>
      <r>     4.8028    16.4592    16.4592    16.4592    -0.0000    -0.0000     0.0000 </r>
      <r>     4.8257    15.7216    15.7216    15.7216    -0.0000    -0.0000     0.0000 </r>
      <r>     4.8485    15.2860    15.2860    15.2860    -0.0000    -0.0000     0.0000 </r>
      <r>     4.8714    14.9645    14.9645    14.9645    -0.0000    -0.0000     0.0000 </r>
      <r>     4.8943    14.6018    14.6018    14.6018    -0.0000    -0.0000     0.0000 </r>
      <r>     4.9171    14.1655    14.1655    14.1655    -0.0000    -0.0000     0.0000 </r>
      <r>     4.9400    13.7594    13.7594    13.7594    -0.0000    -0.0000     0.0000 </r>
      <r>     4.9629    13.5308    13.5308    13.5308    -0.0000    -0.0000     0.0000 </r>
      <r>     4.9858    13.5610    13.5610    13.5610    -0.0000    -0.0000     0.0000 </r>
      <r>     5.0086    13.8235    13.8235    13.8235    -0.0000    -0.0000     0.0000 </r>
      <r>     5.0315    14.2156    14.2156    14.2156    -0.0000    -0.0000     0.0000 </r>
      <r>     5.0544    14.6247    14.6247    14.6247    -0.0000    -0.0000     0.0000 </r>
      <r>     5.0772    15.0037    15.0037    15.0037    -0.0000    -0.0000     0.0000 </r>
      <r>     5.1001    15.3866    15.3866    15.3866    -0.0000    -0.0000     0.0000 </r>
      <r>     5.1230    15.8080    15.8080    15.8080    -0.0000    -0.0000     0.0000 </r>
      <r>     5.1459    16.2480    16.2480    16.2480    -0.0000    -0.0000     0.0000 </r>
      <r>     5.1687    16.6892    16.6892    16.6892    -0.0000    -0.0000     0.0000 </r>
      <r>     5.1916    17.1869    17.1869    17.1869    -0.0000    -0.0000     0.0000 </r>
      <r>     5.2145    17.8204    17.8204    17.8204    -0.0000    -0.0000     0.0000 </r>
      <r>     5.2373    18.5724    18.5724    18.5724    -0.0000    -0.0000     0.0000 </r>
[...]
       </set>
       <set comment="band 13">
        <r>  0.0058  0.1006  0.0000 </r>
        <r>  0.0058  0.1006  0.0000 </r>
       </set>
       <set comment="band 14">
        <r>  0.0006  0.0621  0.0000 </r>
        <r>  0.0006  0.0621  0.0000 </r>
       </set>
       <set comment="band 15">
        <r>  0.0030  0.0519  0.0000 </r>
        <r>  0.0030  0.0519  0.0000 </r>
       </set>
       <set comment="band 16">
        <r>  0.0237  0.0201  0.0000 </r>
        <r>  0.0237  0.0201  0.0000 </r>
       </set>
      </set>
      <set comment="kpoint 48">
       <set comment="band 1">
        <r>  0.2092  0.0315  0.0000 </r>
        <r>  0.2092  0.0315  0.0000 </r>
       </set>
       <set comment="band 2">
        <r>  0.1869  0.0641  0.0000 </r>
        <r>  0.1869  0.0641  0.0000 </r>
       </set>
       <set comment="band 3">
        <r>  0.0076  0.1656  0.0000 </r>
        <r>  0.0076  0.1656  0.0000 </r>
       </set>
       <set comment="band 4">
        <r>  0.0009  0.1877  0.0000 </r>
        <r>  0.0009  0.1877  0.0000 </r>
       </set>
       <set comment="band 5">
        <r>  0.0435  0.0603  0.0000 </r>
        <r>  0.0435  0.0603  0.0000 </r>
       </set>
       <set comment="band 6">
        <r>  0.0313  0.0695  0.0000 </r>
        <r>  0.0313  0.0695  0.0000 </r>
       </set>
       <set comment="band 7">
        <r>  0.0352  0.1118  0.0000 </r>
        <r>  0.0352  0.1118  0.0000 </r>
       </set>
       <set comment="band 8">
        <r>  0.0127  0.1432  0.0000 </r>
        <r>  0.0127  0.1432  0.0000 </r>
       </set>
       <set comment="band 9">
        <r>  0.0125  0.1048  0.0000 </r>
        <r>  0.0125  0.1048  0.0000 </r>
       </set>
       <set comment="band 10">
        <r>  0.0218  0.0842  0.0000 </r>
        <r>  0.0218  0.0842  0.0000 </r>
       </set>
       <set comment="band 11">
        <r>  0.0099  0.1068  0.0000 </r>
        <r>  0.0099  0.1068  0.0000 </r>
       </set>
       <set comment="band 12">
        <r>  0.0272  0.1491  0.0000 </r>
        <r>  0.0272  0.1491  0.0000 </r>
       </set>
       <set comment="band 13">
        <r>  0.0127  0.0418  0.0000 </r>
        <r>  0.0127  0.0418  0.0000 </r>
       </set>
       <set comment="band 14">
        <r>  0.0080  0.0787  0.0000 </r>
        <r>  0.0080  0.0787  0.0000 </r>
       </set>
       <set comment="band 15">
        <r>  0.0191  0.0251  0.0000 </r>
        <r>  0.0191  0.0251  0.0000 </r>
       </set>
       <set comment="band 16">
        <r>  0.0149  0.0549  0.0000 </r>
        <r>  0.0149  0.0549  0.0000 </r>
       </set>
      </set>
      <set comment="kpoint 49">
       <set comment="band 1">
        <r>  0.2173  0.0322  0.0000 </r>
        <r>  0.2173  0.0322  0.0000 </r>
       </set>
       <set comment="band 2">
        <r>  0.1825  0.0612  0.0000 </r>
        <r>  0.1825  0.0612  0.0000 </r>
       </set>
       <set comment="band 3">
        <r>  0.0057  0.1577  0.0000 </r>
        <r>  0.0057  0.1577  0.0000 </r>
       </set>
       <set comment="band 4">
        <r>  0.0021  0.1886  0.0000 </r>
        <r>  0.0021  0.1886  0.0000 </r>
       </set>
       <set comment="band 5">
        <r>  0.0445  0.0583  0.0000 </r>
        <r>  0.0445  0.0583  0.0000 </r>
       </set>
       <set comment="band 6">
        <r>  0.0131  0.0812  0.0000 </r>
        <r>  0.0131  0.0812  0.0000 </r>
       </set>
       <set comment="band 7">
        <r>  0.0413  0.1099  0.0000 </r>
        <r>  0.0413  0.1099  0.0000 </r>
       </set>
       <set comment="band 8">
        <r>  0.0264  0.1131  0.0000 </r>
        <r>  0.0264  0.1131  0.0000 </r>
       </set>
       <set comment="band 9">
        <r>  0.0179  0.1202  0.0000 </r>
        <r>  0.0179  0.1202  0.0000 </r>
       </set>
       <set comment="band 10">
        <r>  0.0155  0.1025  0.0000 </r>
        <r>  0.0155  0.1025  0.0000 </r>
       </set>
       <set comment="band 11">
        <r>  0.0134  0.1089  0.0000 </r>
        <r>  0.0134  0.1089  0.0000 </r>
       </set>
       <set comment="band 12">
        <r>  0.0120  0.0537  0.0000 </r>
        <r>  0.0120  0.0537  0.0000 </r>
       </set>
       <set comment="band 13">
        <r>  0.0094  0.1237  0.0000 </r>
        <r>  0.0094  0.1237  0.0000 </r>
       </set>
       <set comment="band 14">
        <r>  0.0043  0.0956  0.0000 </r>
        <r>  0.0043  0.0956  0.0000 </r>
       </set>
       <set comment="band 15">
        <r>  0.0291  0.0094  0.0000 </r>
        <r>  0.0291  0.0094  0.0000 </r>
       </set>
       <set comment="band 16">
        <r>  0.0004  0.0827  0.0000 </r>
        <r>  0.0004  0.0827  0.0000 </r>
       </set>
      </set>
      <set comment="kpoint 50">
       <set comment="band 1">
        <r>  0.2170  0.0287  0.0000 </r>
        <r>  0.2170  0.0287  0.0000 </r>
       </set>
       <set comment="band 2">
        <r>  0.1788  0.0666  0.0000 </r>
        <r>  0.1788  0.0666  0.0000 </r>
       </set>
       <set comment="band 3">
        <r>  0.0056  0.1558  0.0000 </r>
        <r>  0.0056  0.1558  0.0000 </r>
       </set>
       <set comment="band 4">
        <r>  0.0029  0.1920  0.0000 </r>
        <r>  0.0029  0.1920  0.0000 </r>
       </set>
       <set comment="band 5">
        <r>  0.0449  0.0629  0.0000 </r>
        <r>  0.0449  0.0629  0.0000 </r>
       </set>
       <set comment="band 6">
        <r>  0.0123  0.1032  0.0000 </r>
        <r>  0.0123  0.1032  0.0000 </r>
       </set>
       <set comment="band 7">
        <r>  0.0419  0.0797  0.0000 </r>
        <r>  0.0419  0.0797  0.0000 </r>
       </set>
       <set comment="band 8">
        <r>  0.0173  0.0989  0.0000 </r>
        <r>  0.0173  0.0989  0.0000 </r>
       </set>
       <set comment="band 9">
        <r>  0.0225  0.1558  0.0000 </r>
        <r>  0.0225  0.1558  0.0000 </r>
       </set>
       <set comment="band 10">
        <r>  0.0319  0.0820  0.0000 </r>
        <r>  0.0319  0.0820  0.0000 </r>
       </set>
       <set comment="band 11">
        <r>  0.0162  0.0238  0.0000 </r>
        <r>  0.0162  0.0238  0.0000 </r>
       </set>
       <set comment="band 12">
        <r>  0.0107  0.0604  0.0000 </r>
        <r>  0.0107  0.0604  0.0000 </r>
       </set>
       <set comment="band 13">
        <r>  0.0030  0.1280  0.0000 </r>
        <r>  0.0030  0.1280  0.0000 </r>
       </set>
       <set comment="band 14">
        <r>  0.0233  0.0755  0.0000 </r>
        <r>  0.0233  0.0755  0.0000 </r>
       </set>
       <set comment="band 15">
        <r>  0.0126  0.1309  0.0000 </r>
        <r>  0.0126  0.1309  0.0000 </r>
       </set>
       <set comment="band 16">
        <r>  0.0138  0.0587  0.0000 </r>
        <r>  0.0138  0.0587  0.0000 </r>
       </set>
      </set>
      <set comment="kpoint 51">
       <set comment="band 1">
        <r>  0.2030  0.0388  0.0000 </r>
        <r>  0.2030  0.0388  0.0000 </r>
       </set>
       <set comment="band 2">
        <r>  0.1951  0.0547  0.0000 </r>
        <r>  0.1951  0.0547  0.0000 </r>
       </set>
       <set comment="band 3">
        <r>  0.0038  0.1818  0.0000 </r>
        <r>  0.0038  0.1818  0.0000 </r>
       </set>
       <set comment="band 4">
        <r>  0.0008  0.1857  0.0000 </r>
        <r>  0.0008  0.1857  0.0000 </r>
       </set>
       <set comment="band 5">
        <r>  0.0457  0.0575  0.0000 </r>
        <r>  0.0457  0.0575  0.0000 </r>
       </set>
       <set comment="band 6">
        <r>  0.0441  0.0471  0.0000 </r>
        <r>  0.0441  0.0471  0.0000 </r>
       </set>
       <set comment="band 7">
        <r>  0.0202  0.1247  0.0000 </r>
        <r>  0.0202  0.1247  0.0000 </r>
       </set>
       <set comment="band 8">
        <r>  0.0082  0.2060  0.0000 </r>
        <r>  0.0082  0.2060  0.0000 </r>
       </set>
       <set comment="band 9">
        <r>  0.0047  0.0476  0.0000 </r>
        <r>  0.0047  0.0476  0.0000 </r>
       </set>
       <set comment="band 10">
        <r>  0.0099  0.1069  0.0000 </r>
        <r>  0.0099  0.1069  0.0000 </r>
       </set>
       <set comment="band 11">
        <r>  0.0208  0.0832  0.0000 </r>
        <r>  0.0208  0.0832  0.0000 </r>
       </set>
       <set comment="band 12">
        <r>  0.0137  0.1091  0.0000 </r>
        <r>  0.0137  0.1091  0.0000 </r>
       </set>
       <set comment="band 13">
        <r>  0.0367  0.1294  0.0000 </r>
        <r>  0.0367  0.1294  0.0000 </r>
       </set>
       <set comment="band 14">
        <r>  0.0032  0.1088  0.0000 </r>
        <r>  0.0032  0.1088  0.0000 </r>
       </set>
       <set comment="band 15">
        <r>  0.0001  0.0237  0.0000 </r>
        <r>  0.0001  0.0237  0.0000 </r>
       </set>
       <set comment="band 16">
        <r>  0.0384  0.0138  0.0000 </r>
        <r>  0.0384  0.0138  0.0000 </r>
       </set>
      </set>
      <set comment="kpoint 52">
       <set comment="band 1">
        <r>  0.2097  0.0407  0.0000 </r>
        <r>  0.2097  0.0407  0.0000 </r>
       </set>
       <set comment="band 2">
        <r>  0.1954  0.0505  0.0000 </r>
        <r>  0.1954  0.0505  0.0000 </r>
       </set>
       <set comment="band 3">
        <r>  0.0011  0.1663  0.0000 </r>
        <r>  0.0011  0.1663  0.0000 </r>
       </set>
       <set comment="band 4">
        <r>  0.0023  0.1850  0.0000 </r>
        <r>  0.0023  0.1850  0.0000 </r>
       </set>
       <set comment="band 5">
        <r>  0.0450  0.0539  0.0000 </r>
        <r>  0.0450  0.0539  0.0000 </r>
       </set>
       <set comment="band 6">
        <r>  0.0327  0.0735  0.0000 </r>
        <r>  0.0327  0.0735  0.0000 </r>
       </set>
       <set comment="band 7">
        <r>  0.0210  0.1223  0.0000 </r>
        <r>  0.0210  0.1223  0.0000 </r>
       </set>
       <set comment="band 8">
        <r>  0.0267  0.1084  0.0000 </r>
        <r>  0.0267  0.1084  0.0000 </r>
       </set>
       <set comment="band 9">
        <r>  0.0079  0.1281  0.0000 </r>
        <r>  0.0079  0.1281  0.0000 </r>
       </set>
       <set comment="band 10">
        <r>  0.0093  0.1086  0.0000 </r>
        <r>  0.0093  0.1086  0.0000 </r>
       </set>
       <set comment="band 11">
        <r>  0.0184  0.1135  0.0000 </r>
        <r>  0.0184  0.1135  0.0000 </r>
       </set>
       <set comment="band 12">
        <r>  0.0159  0.1014  0.0000 </r>
        <r>  0.0159  0.1014  0.0000 </r>
       </set>
       <set comment="band 13">
        <r>  0.0024  0.1118  0.0000 </r>
        <r>  0.0024  0.1118  0.0000 </r>
       </set>
       <set comment="band 14">
        <r>  0.0135  0.1300  0.0000 </r>
        <r>  0.0135  0.1300  0.0000 </r>
       </set>
       <set comment="band 15">
        <r>  0.0184  0.0225  0.0000 </r>
        <r>  0.0184  0.0225  0.0000 </r>
       </set>
       <set comment="band 16">
        <r>  0.0064  0.0238  0.0000 </r>
        <r>  0.0064  0.0238  0.0000 </r>
       </set>
      </set>
      <set comment="kpoint 53">
       <set comment="band 1">
        <r>  0.2119  0.0269  0.0000 </r>
        <r>  0.2119  0.0269  0.0000 </r>
       </set>
       <set comment="band 2">
        <r>  0.1791  0.0717  0.0000 </r>
        <r>  0.1791  0.0717  0.0000 </r>
       </set>
       <set comment="band 3">
        <r>  0.0096  0.1617  0.0000 </r>
        <r>  0.0096  0.1617  0.0000 </r>
       </set>
       <set comment="band 4">
        <r>  0.0030  0.1836  0.0000 </r>
        <r>  0.0030  0.1836  0.0000 </r>
       </set>
       <set comment="band 5">
        <r>  0.0299  0.0948  0.0000 </r>
        <r>  0.0299  0.0948  0.0000 </r>
       </set>
       <set comment="band 6">
        <r>  0.0100  0.0624  0.0000 </r>
        <r>  0.0100  0.0624  0.0000 </r>
       </set>
       <set comment="band 7">
        <r>  0.0716  0.0937  0.0000 </r>
        <r>  0.0716  0.0937  0.0000 </r>
       </set>
       <set comment="band 8">
        <r>  0.0038  0.1373  0.0000 </r>
        <r>  0.0038  0.1373  0.0000 </r>
       </set>
       <set comment="band 9">
        <r>  0.0136  0.1299  0.0000 </r>
        <r>  0.0136  0.1299  0.0000 </r>
       </set>
       <set comment="band 10">
        <r>  0.0384  0.0741  0.0000 </r>
        <r>  0.0384  0.0741  0.0000 </r>
       </set>
       <set comment="band 11">
        <r>  0.0169  0.0046  0.0000 </r>
        <r>  0.0169  0.0046  0.0000 </r>
       </set>
       <set comment="band 12">
        <r>  0.0104  0.0710  0.0000 </r>
        <r>  0.0104  0.0710  0.0000 </r>
       </set>
       <set comment="band 13">
        <r>  0.0154  0.2012  0.0000 </r>
        <r>  0.0154  0.2012  0.0000 </r>
       </set>
       <set comment="band 14">
        <r>  0.0148  0.0431  0.0000 </r>
        <r>  0.0148  0.0431  0.0000 </r>
       </set>
       <set comment="band 15">
        <r>  0.0316  0.0620  0.0000 </r>
        <r>  0.0316  0.0620  0.0000 </r>
       </set>
       <set comment="band 16">
        <r>  0.0078  0.0289  0.0000 </r>
        <r>  0.0078  0.0289  0.0000 </r>
       </set>
      </set>
      <set comment="kpoint 54">
       <set comment="band 1">
        <r>  0.2161  0.0308  0.0000 </r>
        <r>  0.2161  0.0308  0.0000 </r>
       </set>
       <set comment="band 2">
        <r>  0.1812  0.0641  0.0000 </r>
        <r>  0.1812  0.0641  0.0000 </r>
       </set>
       <set comment="band 3">
        <r>  0.0110  0.1572  0.0000 </r>
        <r>  0.0110  0.1572  0.0000 </r>
       </set>
       <set comment="band 4">
        <r>  0.0014  0.1791  0.0000 </r>
        <r>  0.0014  0.1791  0.0000 </r>
       </set>
       <set comment="band 5">
        <r>  0.0147  0.0813  0.0000 </r>
        <r>  0.0147  0.0813  0.0000 </r>
       </set>
       <set comment="band 6">
        <r>  0.0439  0.0861  0.0000 </r>
        <r>  0.0439  0.0861  0.0000 </r>
       </set>
       <set comment="band 7">
        <r>  0.0410  0.0874  0.0000 </r>
        <r>  0.0410  0.0874  0.0000 </r>
       </set>
       <set comment="band 8">
        <r>  0.0251  0.1040  0.0000 </r>
        <r>  0.0251  0.1040  0.0000 </r>
       </set>
       <set comment="band 9">
        <r>  0.0148  0.1388  0.0000 </r>
        <r>  0.0148  0.1388  0.0000 </r>
       </set>
       <set comment="band 10">
        <r>  0.0188  0.0950  0.0000 </r>
        <r>  0.0188  0.0950  0.0000 </r>
       </set>
       <set comment="band 11">
        <r>  0.0121  0.1048  0.0000 </r>
        <r>  0.0121  0.1048  0.0000 </r>
       </set>
       <set comment="band 12">
        <r>  0.0138  0.0618  0.0000 </r>
        <r>  0.0138  0.0618  0.0000 </r>
       </set>
       <set comment="band 13">
        <r>  0.0047  0.0863  0.0000 </r>
        <r>  0.0047  0.0863  0.0000 </r>
       </set>
       <set comment="band 14">
        <r>  0.0185  0.1345  0.0000 </r>
        <r>  0.0185  0.1345  0.0000 </r>
       </set>
       <set comment="band 15">
        <r>  0.0250  0.0213  0.0000 </r>
        <r>  0.0250  0.0213  0.0000 </r>
       </set>
       <set comment="band 16">
        <r>  0.0123  0.0255  0.0000 </r>
        <r>  0.0123  0.0255  0.0000 </r>
       </set>
      </set>
      <set comment="kpoint 55">
       <set comment="band 1">
        <r>  0.2090  0.0380  0.0000 </r>
        <r>  0.2090  0.0380  0.0000 </r>
       </set>
       <set comment="band 2">
        <r>  0.2000  0.0526  0.0000 </r>
        <r>  0.2000  0.0526  0.0000 </r>
       </set>
       <set comment="band 3">
        <r>  0.0038  0.1650  0.0000 </r>
        <r>  0.0038  0.1650  0.0000 </r>
       </set>
       <set comment="band 4">
        <r>  0.0000  0.1721  0.0000 </r>
        <r>  0.0000  0.1721  0.0000 </r>
       </set>
       <set comment="band 5">
        <r>  0.0314  0.0813  0.0000 </r>
        <r>  0.0314  0.0813  0.0000 </r>
       </set>
       <set comment="band 6">
        <r>  0.0283  0.0701  0.0000 </r>
        <r>  0.0283  0.0701  0.0000 </r>
       </set>
       <set comment="band 7">
        <r>  0.0407  0.1023  0.0000 </r>
        <r>  0.0407  0.1023  0.0000 </r>
       </set>
       <set comment="band 8">
        <r>  0.0259  0.1081  0.0000 </r>
        <r>  0.0259  0.1081  0.0000 </r>
       </set>
       <set comment="band 9">
        <r>  0.0009  0.1404  0.0000 </r>
        <r>  0.0009  0.1404  0.0000 </r>
       </set>
       <set comment="band 10">
        <r>  0.0126  0.1103  0.0000 </r>
        <r>  0.0126  0.1103  0.0000 </r>
       </set>
       <set comment="band 11">
        <r>  0.0221  0.1077  0.0000 </r>
        <r>  0.0221  0.1077  0.0000 </r>
       </set>
       <set comment="band 12">
        <r>  0.0135  0.1189  0.0000 </r>
        <r>  0.0135  0.1189  0.0000 </r>
       </set>
       <set comment="band 13">
        <r>  0.0046  0.0424  0.0000 </r>
        <r>  0.0046  0.0424  0.0000 </r>
       </set>
       <set comment="band 14">
        <r>  0.0125  0.1075  0.0000 </r>
        <r>  0.0125  0.1075  0.0000 </r>
       </set>
       <set comment="band 15">
        <r>  0.0222  0.0182  0.0000 </r>
        <r>  0.0222  0.0182  0.0000 </r>
       </set>
       <set comment="band 16">
        <r>  0.0220  0.0365  0.0000 </r>
        <r>  0.0220  0.0365  0.0000 </r>
       </set>
      </set>
      <set comment="kpoint 56">
       <set comment="band 1">
        <r>  0.2136  0.0379  0.0000 </r>
        <r>  0.2136  0.0379  0.0000 </r>
       </set>
       <set comment="band 2">
        <r>  0.1992  0.0514  0.0000 </r>
        <r>  0.1992  0.0514  0.0000 </r>
       </set>
       <set comment="band 3">
        <r>  0.0003  0.1611  0.0000 </r>
        <r>  0.0003  0.1611  0.0000 </r>
       </set>
       <set comment="band 4">
        <r>  0.0015  0.1715  0.0000 </r>
        <r>  0.0015  0.1715  0.0000 </r>
       </set>
       <set comment="band 5">
        <r>  0.0256  0.0786  0.0000 </r>
        <r>  0.0256  0.0786  0.0000 </r>
       </set>
       <set comment="band 6">
        <r>  0.0011  0.0832  0.0000 </r>
        <r>  0.0011  0.0832  0.0000 </r>
       </set>
       <set comment="band 7">
        <r>  0.0453  0.0911  0.0000 </r>
        <r>  0.0453  0.0911  0.0000 </r>
       </set>
       <set comment="band 8">
        <r>  0.0548  0.1101  0.0000 </r>
        <r>  0.0548  0.1101  0.0000 </r>
       </set>
       <set comment="band 9">
        <r>  0.0035  0.1398  0.0000 </r>
        <r>  0.0035  0.1398  0.0000 </r>
       </set>
       <set comment="band 10">
        <r>  0.0119  0.1114  0.0000 </r>
        <r>  0.0119  0.1114  0.0000 </r>
       </set>
       <set comment="band 11">
        <r>  0.0194  0.1181  0.0000 </r>
        <r>  0.0194  0.1181  0.0000 </r>
       </set>
       <set comment="band 12">
        <r>  0.0158  0.1202  0.0000 </r>
        <r>  0.0158  0.1202  0.0000 </r>
       </set>
       <set comment="band 13">
        <r>  0.0045  0.0293  0.0000 </r>
        <r>  0.0045  0.0293  0.0000 </r>
       </set>
       <set comment="band 14">
        <r>  0.0176  0.0078  0.0000 </r>
        <r>  0.0176  0.0078  0.0000 </r>
       </set>
       <set comment="band 15">
        <r>  0.0125  0.0505  0.0000 </r>
        <r>  0.0125  0.0505  0.0000 </r>
       </set>
       <set comment="band 16">
        <r>  0.0025  0.1412  0.0000 </r>
        <r>  0.0025  0.1412  0.0000 </r>
       </set>
      </set>
     </set>
    </set>
   </array>
  </projected>
 </calculation>
 <structure name="finalpos" >
  <crystal>
   <varray name="basis" >
    <v>       2.71308725       2.71308725       0.00000000 </v>
    <v>       0.00000000       2.71308725       2.71308725 </v>
    <v>       2.71308725       0.00000000       2.71308725 </v>
   </varray>
   <i name="volume">     39.94121528 </i>
   <varray name="rec_basis" >
    <v>       0.18429190       0.18429190      -0.18429190 </v>
    <v>      -0.18429190       0.18429190       0.18429190 </v>
    <v>       0.18429190      -0.18429190       0.18429190 </v>
   </varray>
  </crystal>
  <varray name="positions" >
   <v>       0.00000000       0.00000000       0.00000000 </v>
   <v>       0.25000000       0.25000000       0.25000000 </v>
  </varray>
 </structure>
</modeling>
