 vasp.5.4.1 24Jun15 (build May 10 2016 21:48:03) complex                        
  
 executed on           IFC91_ompi date 2016.08.12  03:32:15
 running on    8 total cores
 distrk:  each k-point on    8 cores,    1 groups
 distr:  one band on NCORES_PER_BAND=   1 cores,    8 groups


--------------------------------------------------------------------------------------------------------


 INCAR:
 POTCAR:    PAW Mo_sv 29Jan2005                   
 POTCAR:    PAW S 27Mar2009                       

 ----------------------------------------------------------------------------- 
|                                                                             |
|           W    W    AA    RRRRR   N    N  II  N    N   GGGG   !!!           |
|           W    W   A  A   R    R  NN   N  II  NN   N  G    G  !!!           |
|           W    W  A    A  R    R  N N  N  II  N N  N  G       !!!           |
|           W WW W  AAAAAA  RRRRR   N  N N  II  N  N N  G  GGG   !            |
|           WW  WW  A    A  R   R   N   NN  II  N   NN  G    G                |
|           W    W  A    A  R    R  N    N  II  N    N   GGGG   !!!           |
|                                                                             |
|      For optimal performance we recommend to set                            |
|        NCORE= 4 - approx SQRT( number of cores)                             |
|      NCORE specifies how many cores store one orbital (NPAR=cpu/NCORE).     |
|      This setting can  greatly improve the performance of VASP for DFT.     |
|      The default, NPAR=number of cores might be grossly inefficient         |
|      on modern multi-core architectures or massively parallel machines.     |
|      Do your own testing !!!!                                               |
|      Unfortunately you need to use the default for GW and RPA calculations. |
|      (for HF NCORE is supported but not extensively tested yet)             |
|                                                                             |
 ----------------------------------------------------------------------------- 

 POTCAR:    PAW Mo_sv 29Jan2005                   
   VRHFIN =Mo: 4p5s4d                                                           
   LEXCH  = CA                                                                  
   EATOM  =  1865.6176 eV,  137.1190 Ry                                         
                                                                                
   TITEL  = PAW Mo_sv 29Jan2005                                                 
   LULTRA =        F    use ultrasoft PP ?                                      
   IUNSCR =        1    unscreen: 0-lin 1-nonlin 2-no                           
   RPACOR =    2.200    partial core radius                                     
   POMASS =   95.940; ZVAL   =   14.000    mass and valenz                      
   RCORE  =    2.500    outmost cutoff radius                                   
   RWIGS  =    2.750; RWIGS  =    1.455    wigner-seitz radius (au A)           
   ENMAX  =  236.514; ENMIN  =  177.386 eV                                      
   ICORE  =        3    local potential                                         
   LCOR   =        T    correct aug charges                                     
   LPAW   =        T    paw PP                                                  
   EAUG   =  446.014                                                            
   DEXC   =    0.000                                                            
   RMAX   =    2.563    core radius for proj-oper                               
   RAUG   =    1.300    factor for augmentation sphere                          
   RDEP   =    2.641    radius for radial grids                                 
   RDEPT  =    2.031    core radius for aug-charge                              
                                                                                
   Atomic configuration                                                         
   11 entries                                                                   
     n  l   j            E        occ.                                          
     1  0  0.50    -19712.5142   2.0000                                         
     2  0  0.50     -2787.6228   2.0000                                         
     2  1  1.50     -2496.3978   6.0000                                         
     3  0  0.50      -474.0850   2.0000                                         
     3  1  1.50      -378.2565   6.0000                                         
     3  2  2.50      -221.2745  10.0000                                         
     4  0  0.50       -64.2314   2.0000                                         
     5  0  0.50        -4.3143   1.0000                                         
     4  1  1.50       -38.5270   6.0000                                         
     4  2  2.50        -3.9470   5.0000                                         
     4  3  2.50        -1.3606   0.0000                                         
   Description                                                                  
     l       E           TYP  RCUT    TYP  RCUT                                 
     0    -64.2313742     23  2.100                                             
     0     -4.3143314     23  2.400                                             
     1    -38.5270427     23  2.100                                             
     1     13.6058260     23  2.100                                             
     2     -3.9469540     23  2.500                                             
     2     -5.3075366     23  2.500                                             
     3     -4.0817478     23  2.500                                             
  local pseudopotential read in
  partial core-charges read in
  partial kinetic energy density read in
  atomic valenz-charges read in
  non local Contribution for L=           0  read in
    real space projection operators read in
  non local Contribution for L=           0  read in
    real space projection operators read in
  non local Contribution for L=           1  read in
    real space projection operators read in
  non local Contribution for L=           1  read in
    real space projection operators read in
  non local Contribution for L=           2  read in
    real space projection operators read in
  non local Contribution for L=           2  read in
    real space projection operators read in
    PAW grid and wavefunctions read in
 
   number of l-projection  operators is LMAX  =           6
   number of lm-projection operators is LMMAX =          18
 
 POTCAR:    PAW S 27Mar2009                       
   VRHFIN =S : s2p4                                                             
   LEXCH  = CA                                                                  
   EATOM  =   277.3745 eV,   20.3864 Ry                                         
                                                                                
   TITEL  = PAW S 27Mar2009                                                     
   LULTRA =        F    use ultrasoft PP ?                                      
   IUNSCR =        1    unscreen: 0-lin 1-nonlin 2-no                           
   RPACOR =    1.500    partial core radius                                     
   POMASS =   32.066; ZVAL   =    6.000    mass and valenz                      
   RCORE  =    1.900    outmost cutoff radius                                   
   RWIGS  =    2.200; RWIGS  =    1.164    wigner-seitz radius (au A)           
   ENMAX  =  258.602; ENMIN  =  193.952 eV                                      
   ICORE  =        2    local potential                                         
   LCOR   =        T    correct aug charges                                     
   LPAW   =        T    paw PP                                                  
   EAUG   =  335.092                                                            
   DEXC   =    0.000                                                            
   RMAX   =    1.942    core radius for proj-oper                               
   RAUG   =    1.300    factor for augmentation sphere                          
   RDEP   =    1.954    radius for radial grids                                 
   RDEPT  =    1.744    core radius for aug-charge                              
                                                                                
   Atomic configuration                                                         
    6 entries                                                                   
     n  l   j            E        occ.                                          
     1  0  0.50     -2393.1495   2.0000                                         
     2  0  0.50      -210.5411   2.0000                                         
     2  1  1.50      -156.4410   6.0000                                         
     3  0  0.50       -17.2664   2.0000                                         
     3  1  0.50        -7.1129   4.0000                                         
     3  2  1.50        -8.1635   0.0000                                         
   Description                                                                  
     l       E           TYP  RCUT    TYP  RCUT                                 
     0    -17.2664422     23  1.900                                             
     0    -15.8420823     23  1.900                                             
     1     -7.1129072     23  1.900                                             
     1     -2.8398274     23  1.900                                             
     2     -8.1634956     23  1.900                                             
  local pseudopotential read in
  partial core-charges read in
  partial kinetic energy density read in
  atomic valenz-charges read in
  non local Contribution for L=           0  read in
    real space projection operators read in
  non local Contribution for L=           0  read in
    real space projection operators read in
  non local Contribution for L=           1  read in
    real space projection operators read in
  non local Contribution for L=           1  read in
    real space projection operators read in
    PAW grid and wavefunctions read in
 
   number of l-projection  operators is LMAX  =           4
   number of lm-projection operators is LMMAX =           8
 
  PAW Mo_sv 29Jan2005                   :
 energy of atom  1       EATOM=-1865.6176
 kinetic energy error for atom=    0.0067 (will be added to EATOM!!)
  PAW S 27Mar2009                       :
 energy of atom  2       EATOM= -277.3745
 kinetic energy error for atom=    0.0019 (will be added to EATOM!!)
 
 
 POSCAR: MoS2_monolayer_16vac                    
  positions in direct lattice
  velocities in cartesian coordinates
 exchange correlation table for  LEXCH =        2
   RHO(1)=    0.500       N(1)  =     2000
   RHO(2)=  100.500       N(2)  =     4000
 


--------------------------------------------------------------------------------------------------------


 ion  position               nearest neighbor table
   1  0.333  0.667  0.081-   2 2.38   2 2.38   2 2.38   3 2.38   3 2.38   3 2.38
   2  0.667  0.333  0.163-   1 2.38   1 2.38   1 2.38
   3  0.667  0.333  0.000-   1 2.38   1 2.38   1 2.38
 
  LATTYP: Found a hexagonal cell.
 ALAT       =     3.1230919361
 C/A-ratio  =     6.1185535540
  
  Lattice vectors:
  
 A1 = (   3.1230919361,   0.0000000000,   0.0000000000)
 A2 = (  -1.5615459681,   2.7046769550,   0.0000000000)
 A3 = (   0.0000000000,   0.0000000000,  19.1088052650)


Analysis of symmetry for initial positions (statically):
=====================================================================
 Subroutine PRICEL returns:
 Original cell was already a primitive cell.
 

 Routine SETGRP: Setting up the symmetry group for a 
 hexagonal supercell.


 Subroutine GETGRP returns: Found 12 space group operations
 (whereof  6 operations were pure point group operations)
 out of a pool of 24 trial point group operations.


The static configuration has the point symmetry C_3v.
 The point group associated with its full space group is D_3h.


Analysis of symmetry for dynamics (positions and initial velocities):
=====================================================================
 Subroutine PRICEL returns:
 Original cell was already a primitive cell.
 

 Routine SETGRP: Setting up the symmetry group for a 
 hexagonal supercell.


 Subroutine GETGRP returns: Found 12 space group operations
 (whereof  6 operations were pure point group operations)
 out of a pool of 24 trial point group operations.


The dynamic configuration has the point symmetry C_3v.
 The point group associated with its full space group is D_3h.


 Subroutine INISYM returns: Found 12 space group operations
 (whereof  6 operations are pure point group operations),
 and found     1 'primitive' translations

 
 
 KPOINTS: A                                       

Automatic generation of k-mesh.
Space group operators:
 irot       det(A)        alpha          n_x          n_y          n_z        tau_x        tau_y        tau_z
    1     1.000000     0.000000     1.000000     0.000000     0.000000     0.000000     0.000000     0.000000
    2     1.000000   120.000000     0.000000     0.000000    -1.000000     0.000000     0.000000     0.000000
    3     1.000000   120.000000     0.000000     0.000000     1.000000     0.000000     0.000000     0.000000
    4    -1.000000   180.000000     1.000000     0.000000     0.000000     0.000000     0.000000     0.000000
    5    -1.000000   180.000000     0.500000    -0.866025     0.000000     0.000000     0.000000     0.000000
    6    -1.000000   180.000000    -0.500000    -0.866025     0.000000     0.000000     0.000000     0.000000
    7    -1.000000    60.000000     0.000000     0.000000    -1.000000     0.000000     0.000000     0.162692
    8    -1.000000   179.999999     0.000000     0.000000     1.000000     0.000000     0.000000     0.162692
    9    -1.000000    60.000000     0.000000     0.000000     1.000000     0.000000     0.000000     0.162692
   10     1.000000   180.000000     0.866025    -0.500000     0.000000     0.000000     0.000000     0.162692
   11     1.000000   180.000000     0.000000     1.000000     0.000000     0.000000     0.000000     0.162692
   12     1.000000   180.000000     0.866025     0.500000     0.000000     0.000000     0.000000     0.162692
 
 Subroutine IBZKPT returns following result:
 ===========================================
 
 Found     19 irreducible k-points:
 
 Following reciprocal coordinates:
            Coordinates               Weight
  0.000000  0.000000  0.000000      1.000000
  0.083333  0.000000  0.000000      6.000000
  0.166667  0.000000  0.000000      6.000000
  0.250000  0.000000  0.000000      6.000000
  0.333333  0.000000  0.000000      6.000000
  0.416667  0.000000  0.000000      6.000000
  0.500000  0.000000  0.000000      3.000000
  0.083333  0.083333  0.000000      6.000000
  0.166667  0.083333  0.000000     12.000000
  0.250000  0.083333  0.000000     12.000000
  0.333333  0.083333  0.000000     12.000000
  0.416667  0.083333  0.000000     12.000000
  0.166667  0.166667  0.000000      6.000000
  0.250000  0.166667  0.000000     12.000000
  0.333333  0.166667  0.000000     12.000000
  0.416667  0.166667  0.000000      6.000000
  0.250000  0.250000  0.000000      6.000000
  0.333333  0.250000  0.000000     12.000000
  0.333333  0.333333  0.000000      2.000000
 
 Following cartesian coordinates:
            Coordinates               Weight
  0.000000  0.000000  0.000000      1.000000
  0.026683  0.015405  0.000000      6.000000
  0.053366  0.030811  0.000000      6.000000
  0.080049  0.046216  0.000000      6.000000
  0.106732  0.061622  0.000000      6.000000
  0.133415  0.077027  0.000000      6.000000
  0.160098  0.092432  0.000000      3.000000
  0.026683  0.046216  0.000000      6.000000
  0.053366  0.061622  0.000000     12.000000
  0.080049  0.077027  0.000000     12.000000
  0.106732  0.092432  0.000000     12.000000
  0.133415  0.107838  0.000000     12.000000
  0.053366  0.092432  0.000000      6.000000
  0.080049  0.107838  0.000000     12.000000
  0.106732  0.123243  0.000000     12.000000
  0.133415  0.138649  0.000000      6.000000
  0.080049  0.138649  0.000000      6.000000
  0.106732  0.154054  0.000000     12.000000
  0.106732  0.184865  0.000000      2.000000
 


--------------------------------------------------------------------------------------------------------




 Dimension of arrays:
   k-points           NKPTS =     19   k-points in BZ     NKDIM =     19   number of bands    NBANDS=     48
   number of dos      NEDOS =   2000   number of ions     NIONS =      3
   non local maximal  LDIM  =      6   non local SUM 2l+1 LMDIM =     18
   total plane-waves  NPLWV =  80640
   max r-space proj   IRMAX =      1   max aug-charges    IRDMAX= 174963
   dimension x,y,z NGX =    24 NGY =   24 NGZ =  140
   dimension x,y,z NGXF=    48 NGYF=   48 NGZF=  280
   support grid    NGXF=    96 NGYF=   96 NGZF=  560
   ions per type =               1   2
 NGX,Y,Z   is equivalent  to a cutoff of  12.78, 12.78, 12.18 a.u.
 NGXF,Y,Z  is equivalent  to a cutoff of  25.55, 25.55, 24.36 a.u.


 I would recommend the setting:
   dimension x,y,z NGX =    23 NGY =   23 NGZ =  139
 SYSTEM =  unknown system                          
 POSCAR =  MoS2_monolayer_16vac                    

 Startparameter for this run:
   NWRITE =      2    write-flag & timer
   PREC   = accura    normal or accurate (medium, high low for compatibility)
   ISTART =      1    job   : 0-new  1-cont  2-samecut
   ICHARG =      0    charge: 1-file 2-atom 10-const
   ISPIN  =      1    spin polarized calculation?
   LNONCOLLINEAR =      F non collinear calculations
   LSORBIT =      F    spin-orbit coupling
   INIWAV =      1    electr: 0-lowe 1-rand  2-diag
   LASPH  =      T    aspherical Exc in radial PAW
   METAGGA=      F    non-selfconsistent MetaGGA calc.

 Electronic Relaxation 1
   ENCUT  =  500.0 eV  36.75 Ry    6.06 a.u.   5.69  5.69 34.84*2*pi/ulx,y,z
   ENINI  =  500.0     initial cutoff
   ENAUG  =  446.0 eV  augmentation charge cutoff
   NELM   =     60;   NELMIN=  2; NELMDL=  0     # of ELM steps 
   EDIFF  = 0.1E-04   stopping-criterion for ELM
   LREAL  =      F    real-space projection
   NLSPLINE    = F    spline interpolate recip. space projectors
   LCOMPAT=      F    compatible to vasp.4.4
   GGA_COMPAT  = T    GGA compatible to vasp.4.4-vasp.4.6
   LMAXPAW     = -100 max onsite density
   LMAXMIX     =    2 max onsite mixed and CHGCAR
   VOSKOWN=      0    Vosko Wilk Nusair interpolation
   ROPT   =    0.00000   0.00000
 Ionic relaxation
   EDIFFG = 0.1E-03   stopping-criterion for IOM
   NSW    =      0    number of steps for IOM
   NBLOCK =      1;   KBLOCK =      1    inner block; outer block 
   IBRION =     -1    ionic relax: 0-MD 1-quasi-New 2-CG
   NFREE  =      0    steps in history (QN), initial steepest desc. (CG)
   ISIF   =      2    stress and relaxation
   IWAVPR =     10    prediction:  0-non 1-charg 2-wave 3-comb
   ISYM   =      2    0-nonsym 1-usesym 2-fastsym
   LCORR  =      T    Harris-Foulkes like correction to forces

   POTIM  = 0.5000    time-step for ionic-motion
   TEIN   =    0.0    initial temperature
   TEBEG  =    0.0;   TEEND  =   0.0 temperature during run
   SMASS  =  -3.00    Nose mass-parameter (am)
   estimated Nose-frequenzy (Omega)   =  0.10E-29 period in steps =****** mass=  -0.223E-27a.u.
   SCALEE = 1.0000    scale energy and forces
   NPACO  =    256;   APACO  = 16.0  distance and # of slots for P.C.
   PSTRESS=    0.0 pullay stress

  Mass of Ions in am
   POMASS =  95.94 32.07
  Ionic Valenz
   ZVAL   =  14.00  6.00
  Atomic Wigner-Seitz radii
   RWIGS  =  -1.00 -1.00
  virtual crystal weights 
   VCA    =   1.00  1.00
   NELECT =      26.0000    total number of electrons
   NUPDOWN=      -1.0000    fix difference up-down

 DOS related values:
   EMIN   =  10.00;   EMAX   =-10.00  energy-range for DOS
   EFERMI =   0.00
   ISMEAR =     0;   SIGMA  =   0.01  broadening in eV -4-tet -1-fermi 0-gaus

 Electronic relaxation 2 (details)
   IALGO  =     38    algorithm
   LDIAG  =      T    sub-space diagonalisation (order eigenvalues)
   LSUBROT=      F    optimize rotation matrix (better conditioning)
   TURBO    =      0    0=normal 1=particle mesh
   IRESTART =      0    0=no restart 2=restart with 2 vectors
   NREBOOT  =      0    no. of reboots
   NMIN     =      0    reboot dimension
   EREF     =   0.00    reference energy to select bands
   IMIX   =      4    mixing-type and parameters
     AMIX     =   0.40;   BMIX     =  1.00
     AMIX_MAG =   1.60;   BMIX_MAG =  1.00
     AMIN     =   0.10
     WC   =   100.;   INIMIX=   1;  MIXPRE=   1;  MAXMIX= -45

 Intra band minimization:
   WEIMIN = 0.0000     energy-eigenvalue tresh-hold
   EBREAK =  0.52E-07  absolut break condition
   DEPER  =   0.30     relativ break condition  

   TIME   =   0.40     timestep for ELM

  volume/ion in A,a.u.               =      53.80       363.09
  Fermi-wavevector in a.u.,A,eV,Ry     =   0.890748  1.683269 10.795291  0.793431
  Thomas-Fermi vector in A             =   2.012479
 
 Write flags
   LWAVE  =      F    write WAVECAR
   LCHARG =      F    write CHGCAR
   LVTOT  =      F    write LOCPOT, total local potential
   LVHAR  =      F    write LOCPOT, Hartree potential only
   LELF   =      F    write electronic localiz. function (ELF)
   LORBIT =     10    0 simple, 1 ext, 2 COOP (PROOUT)


 Dipole corrections
   LMONO  =      F    monopole corrections only (constant potential shift)
   LDIPOL =      F    correct potential (dipole corrections)
   IDIPOL =      0    1-x, 2-y, 3-z, 4-all directions 
   EPSILON=  1.0000000 bulk dielectric constant

 Exchange correlation treatment:
   GGA     =    --    GGA type
   LEXCH   =     2    internal setting for exchange type
   VOSKOWN=      0    Vosko Wilk Nusair interpolation
   LHFCALC =     F    Hartree Fock is set to
   LHFONE  =     F    Hartree Fock one center treatment
   AEXX    =    0.0000 exact exchange contribution

 Linear response parameters
   LEPSILON=     F    determine dielectric tensor
   LRPA    =     F    only Hartree local field effects (RPA)
   LNABLA  =     F    use nabla operator in PAW spheres
   LVEL    =     F    velocity operator in full k-point grid
   LINTERFAST=   F  fast interpolation
   KINTER  =     0    interpolate to denser k-point grid
   CSHIFT  =0.1000    complex shift for real part using Kramers Kronig
   OMEGAMAX=  -1.0    maximum frequency
   DEG_THRESHOLD= 0.2000000E-02 threshold for treating states as degnerate
   RTIME   =    0.100 relaxation time in fs

 Orbital magnetization related:
   ORBITALMAG=     F  switch on orbital magnetization
   LCHIMAG   =     F  perturbation theory with respect to B field
   DQ        =  0.001000  dq finite difference perturbation B field



--------------------------------------------------------------------------------------------------------


 Static calculation
 charge density and potential will be updated during run
 non-spin polarized calculation
 Variant of blocked Davidson
 Davidson routine will perform the subspace rotation
 perform sub-space diagonalisation
    after iterative eigenvector-optimisation
 modified Broyden-mixing scheme, WC =      100.0
 initial mixing is a Kerker type mixing with AMIX =  0.4000 and BMIX =      1.0000
 Hartree-type preconditioning will be used
 using additional bands           35
 reciprocal scheme for non local part
 use partial core corrections
 calculate Harris-corrections to forces 
   (improved forces if not selfconsistent)
 use of overlap-Matrix (Vanderbilt PP)
 Gauss-broadening in eV      SIGMA  =   0.01


--------------------------------------------------------------------------------------------------------


  energy-cutoff  :      500.00
  volume of cell :      161.41
      direct lattice vectors                 reciprocal lattice vectors
     3.123091936  0.000000000  0.000000000     0.320195505  0.184864961  0.000000000
    -1.561545968  2.704676955  0.000000000     0.000000000  0.369729922  0.000000000
     0.000000000  0.000000000 19.108805265     0.000000000  0.000000000  0.052331895

  length of vectors
     3.123091936  3.123091936 19.108805265     0.369729922  0.369729922  0.052331895


 
 old parameters found on file WAVECAR:
  energy-cutoff  :      500.00
  volume of cell :      161.41
      direct lattice vectors                 reciprocal lattice vectors
     3.123091936  0.000000000  0.000000000     0.320195505  0.184864961  0.000000000
    -1.561545968  2.704676955  0.000000000     0.000000000  0.369729922  0.000000000
     0.000000000  0.000000000 19.108805265     0.000000000  0.000000000  0.052331895

  length of vectors

 
 k-points in units of 2pi/SCALE and weight: A                                       
   0.00000000  0.00000000  0.00000000       0.007
   0.02668296  0.01540541  0.00000000       0.042
   0.05336592  0.03081083  0.00000000       0.042
   0.08004888  0.04621624  0.00000000       0.042
   0.10673184  0.06162165  0.00000000       0.042
   0.13341479  0.07702707  0.00000000       0.042
   0.16009775  0.09243248  0.00000000       0.021
   0.02668296  0.04621624  0.00000000       0.042
   0.05336592  0.06162165  0.00000000       0.083
   0.08004888  0.07702707  0.00000000       0.083
   0.10673184  0.09243248  0.00000000       0.083
   0.13341479  0.10783789  0.00000000       0.083
   0.05336592  0.09243248  0.00000000       0.042
   0.08004888  0.10783789  0.00000000       0.083
   0.10673184  0.12324331  0.00000000       0.083
   0.13341479  0.13864872  0.00000000       0.042
   0.08004888  0.13864872  0.00000000       0.042
   0.10673184  0.15405413  0.00000000       0.083
   0.10673184  0.18486496  0.00000000       0.014
 
 k-points in reciprocal lattice and weights: A                                       
   0.00000000  0.00000000  0.00000000       0.007
   0.08333333  0.00000000  0.00000000       0.042
   0.16666667  0.00000000  0.00000000       0.042
   0.25000000  0.00000000  0.00000000       0.042
   0.33333333  0.00000000  0.00000000       0.042
   0.41666667  0.00000000  0.00000000       0.042
   0.50000000  0.00000000  0.00000000       0.021
   0.08333333  0.08333333  0.00000000       0.042
   0.16666667  0.08333333  0.00000000       0.083
   0.25000000  0.08333333  0.00000000       0.083
   0.33333333  0.08333333  0.00000000       0.083
   0.41666667  0.08333333  0.00000000       0.083
   0.16666667  0.16666667  0.00000000       0.042
   0.25000000  0.16666667  0.00000000       0.083
   0.33333333  0.16666667  0.00000000       0.083
   0.41666667  0.16666667  0.00000000       0.042
   0.25000000  0.25000000  0.00000000       0.042
   0.33333333  0.25000000  0.00000000       0.083
   0.33333333  0.33333333  0.00000000       0.014
 
 position of ions in fractional coordinates (direct lattice) 
   0.33333334  0.66666669  0.08134579
   0.66666663  0.33333331  0.16259015
   0.66666663  0.33333331  0.00009952
 
 position of ions in cartesian coordinates  (Angst):
   0.00000000  1.80311802  1.55442080
   1.56154587  0.90155893  3.10690358
   1.56154587  0.90155893  0.00190169
 


--------------------------------------------------------------------------------------------------------


 k-point  1 :   0.0000 0.0000 0.0000  plane waves:    4089
 k-point  2 :   0.0833 0.0000 0.0000  plane waves:    4112
 k-point  3 :   0.1667 0.0000 0.0000  plane waves:    4106
 k-point  4 :   0.2500 0.0000 0.0000  plane waves:    4124
 k-point  5 :   0.3333 0.0000 0.0000  plane waves:    4100
 k-point  6 :   0.4167 0.0000 0.0000  plane waves:    4096
 k-point  7 :   0.5000 0.0000 0.0000  plane waves:    4108
 k-point  8 :   0.0833 0.0833 0.0000  plane waves:    4123
 k-point  9 :   0.1667 0.0833 0.0000  plane waves:    4107
 k-point 10 :   0.2500 0.0833 0.0000  plane waves:    4105
 k-point 11 :   0.3333 0.0833 0.0000  plane waves:    4089
 k-point 12 :   0.4167 0.0833 0.0000  plane waves:    4104
 k-point 13 :   0.1667 0.1667 0.0000  plane waves:    4102
 k-point 14 :   0.2500 0.1667 0.0000  plane waves:    4082
 k-point 15 :   0.3333 0.1667 0.0000  plane waves:    4092
 k-point 16 :   0.4167 0.1667 0.0000  plane waves:    4106
 k-point 17 :   0.2500 0.2500 0.0000  plane waves:    4086
 k-point 18 :   0.3333 0.2500 0.0000  plane waves:    4069
 k-point 19 :   0.3333 0.3333 0.0000  plane waves:    4044

 maximum and minimum number of plane-waves per node :      4124     4044

 maximum number of plane-waves:      4124
 maximum index in each direction: 
   IXMAX=    5   IYMAX=    5   IZMAX=   34
   IXMIN=   -6   IYMIN=   -5   IZMIN=  -34

 NGX is ok and might be reduce to  24
 NGY is ok and might be reduce to  22
 NGZ is ok and might be reduce to 138

 serial   3D FFT for wavefunctions
 parallel 3D FFT for charge:
    minimum data exchange during FFTs selected (reduces bandwidth)


 total amount of memory used by VASP on root node    80313. kBytes
========================================================================

   base      :      30000. kBytes
   nonl-proj :      22786. kBytes
   fftplans  :      12106. kBytes
   grid      :       7773. kBytes
   one-center:         46. kBytes
   wavefun   :       7602. kBytes
 
     INWAV:  cpu time    0.2700: real time    0.2699
 Broyden mixing: mesh for mixing (old mesh)
   NGX = 11   NGY = 11   NGZ = 69
  (NGX  = 48   NGY  = 48   NGZ  =280)
  gives a total of   8349 points

 charge density for first step will be calculated from the start-wavefunctions


--------------------------------------------------------------------------------------------------------


 Maximum index for augmentation-charges        21216 (set IRDMAX)


--------------------------------------------------------------------------------------------------------


 initial charge from wavefunction
 First call to EWALD:  gamma=   0.326
 Maximum number of real-space cells 5x 5x 1
 Maximum number of reciprocal cells 2x 2x 8

 FEWALD executed in parallel
    FEWALD:  cpu time    0.0050: real time    0.0047


----------------------------------------- Iteration    1(   1)  ---------------------------------------


    POTLOK:  cpu time    0.0280: real time    0.0283
    SETDIJ:  cpu time    0.1950: real time    0.1959
     EDDAV:  cpu time    4.6813: real time    4.6906
       DOS:  cpu time    0.0010: real time    0.0004
    CHARGE:  cpu time    0.2900: real time    0.2908
    MIXING:  cpu time    0.0030: real time    0.0029
    --------------------------------------------
      LOOP:  cpu time    5.2002: real time    5.4184

 eigenvalue-minimisations  :  1752
 total energy-change (2. order) :-0.2436645E+02  (-0.3293182E-07)
 number of electron      26.0000000 magnetization 
 augmentation part        0.9918762 magnetization 

 Broyden mixing:
  rms(total) = 0.43092E-04    rms(broyden)= 0.42889E-04
  rms(prec ) = 0.47498E-04
  weight for this iteration     100.00

 Free energy of the ion-electron system (eV)
  ---------------------------------------------------
  alpha Z        PSCENC =        28.33486264
  Ewald energy   TEWEN  =      5299.37653910
  -Hartree energ DENC   =     -7416.29967049
  -exchange      EXHF   =         0.00000000
  -V(xc)+E(xc)   XCENC  =        91.97930689
  PAW double counting   =      3062.55549118    -3040.79865797
  entropy T*S    EENTRO =         0.00000000
  eigenvalues    EBANDS =      -469.87046419
  atomic energy  EATOM  =      2420.35613853
  Solvation  Ediel_sol  =         0.00000000
  ---------------------------------------------------
  free energy    TOTEN  =       -24.36645431 eV

  energy without entropy =      -24.36645431  energy(sigma->0) =      -24.36645431


--------------------------------------------------------------------------------------------------------




----------------------------------------- Iteration    1(   2)  ---------------------------------------


    POTLOK:  cpu time    0.0270: real time    0.0273
    SETDIJ:  cpu time    0.1960: real time    0.1962
     EDDAV:  cpu time    4.9762: real time    4.9866
       DOS:  cpu time    0.0000: real time    0.0003
    --------------------------------------------
      LOOP:  cpu time    5.2002: real time    5.3726

 eigenvalue-minimisations  :  1928
 total energy-change (2. order) :-0.1813669E-07  (-0.2222679E-07)
 number of electron      26.0000000 magnetization 
 augmentation part        0.9918762 magnetization 

 Free energy of the ion-electron system (eV)
  ---------------------------------------------------
  alpha Z        PSCENC =        28.33486264
  Ewald energy   TEWEN  =      5299.37653910
  -Hartree energ DENC   =     -7416.29728624
  -exchange      EXHF   =         0.00000000
  -V(xc)+E(xc)   XCENC  =        91.97928604
  PAW double counting   =      3062.54209892    -3040.78531606
  entropy T*S    EENTRO =         0.00000000
  eigenvalues    EBANDS =      -469.87277725
  atomic energy  EATOM  =      2420.35613853
  Solvation  Ediel_sol  =         0.00000000
  ---------------------------------------------------
  free energy    TOTEN  =       -24.36645432 eV

  energy without entropy =      -24.36645432  energy(sigma->0) =      -24.36645432


--------------------------------------------------------------------------------------------------------




 average (electrostatic) potential at core
  the test charge radii are     1.0818  0.9698
  (the norm of the test charge is              1.0000)
       1 -83.3524       2 -93.5429       3 -93.5446
 
 
 
 E-fermi :  -1.8515     XC(G=0):  -4.1454     alpha+bet : -4.4879


 k-point     1 :       0.0000    0.0000    0.0000
  band No.  band energies     occupation 
      1     -62.3145      2.00000
      2     -36.7088      2.00000
      3     -36.4160      2.00000
      4     -36.4160      2.00000
      5     -16.1349      2.00000
      6     -14.7397      2.00000
      7      -7.7298      2.00000
      8      -4.5421      2.00000
      9      -4.5421      2.00000
     10      -3.7836      2.00000
     11      -3.3622      2.00000
     12      -3.3622      2.00000
     13      -2.0058      2.00000
     14       1.0474      0.00000
     15       1.0474      0.00000
     16       1.3368      0.00000
     17       1.3368      0.00000
     18       3.6919      0.00000
     19       3.9120      0.00000
     20       4.5135      0.00000
     21       4.8813      0.00000
     22       5.9263      0.00000
     23       7.1179      0.00000
     24       7.3732      0.00000
     25       9.0516      0.00000
     26       9.6586      0.00000
     27       9.9811      0.00000
     28      10.2789      0.00000
     29      11.6173      0.00000
     30      11.7306      0.00000
     31      11.9186      0.00000
     32      13.2068      0.00000
     33      14.2902      0.00000
     34      14.9511      0.00000
     35      15.5141      0.00000
     36      15.6094      0.00000
     37      15.9410      0.00000
     38      16.0255      0.00000
     39      17.6452      0.00000
     40      18.4382      0.00000
     41      19.1465      0.00000
     42      19.6952      0.00000
     43      21.9971      0.00000
     44      22.2354      0.00000
     45      23.8794      0.00000
     46      24.3221      0.00000
     47      24.7296      0.00000
     48      24.9326      0.00000

 k-point     2 :       0.0833    0.0000    0.0000
  band No.  band energies     occupation 
      1     -62.3112      2.00000
      2     -36.7024      2.00000
      3     -36.4482      2.00000
      4     -36.4233      2.00000
      5     -16.0221      2.00000
      6     -14.6947      2.00000
      7      -7.6040      2.00000
      8      -4.7818      2.00000
      9      -4.4236      2.00000
     10      -4.2637      2.00000
     11      -3.5384      2.00000
     12      -3.0461      2.00000
     13      -2.0431      2.00000
     14       0.8968      0.00000
     15       1.0074      0.00000
     16       1.2078      0.00000
     17       1.2417      0.00000
     18       3.8782      0.00000
     19       4.0516      0.00000
     20       4.8368      0.00000
     21       5.1962      0.00000
     22       6.0593      0.00000
     23       7.2441      0.00000
     24       7.8562      0.00000
     25       9.1493      0.00000
     26       9.4230      0.00000
     27      10.1909      0.00000
     28      10.7233      0.00000
     29      10.8718      0.00000
     30      11.7359      0.00000
     31      11.9666      0.00000
     32      13.3396      0.00000
     33      14.4930      0.00000
     34      14.6367      0.00000
     35      15.2230      0.00000
     36      15.6528      0.00000
     37      16.0262      0.00000
     38      16.2290      0.00000
     39      17.7747      0.00000
     40      18.6341      0.00000
     41      19.5770      0.00000
     42      20.9971      0.00000
     43      21.4082      0.00000
     44      21.7109      0.00000
     45      22.1099      0.00000
     46      22.9335      0.00000
     47      23.5780      0.00000
     48      23.9560      0.00000

 k-point     3 :       0.1667    0.0000    0.0000
  band No.  band energies     occupation 
      1     -62.3020      2.00000
      2     -36.6850      2.00000
      3     -36.5351      2.00000
      4     -36.4430      2.00000
      5     -15.7011      2.00000
      6     -14.5669      2.00000
      7      -7.2915      2.00000
      8      -5.3213      2.00000
      9      -4.9418      2.00000
     10      -4.0928      2.00000
     11      -3.9509      2.00000
     12      -2.9526      2.00000
     13      -2.2493      2.00000
     14       0.4791      0.00000
     15       0.8255      0.00000
     16       0.9116      0.00000
     17       1.6825      0.00000
     18       4.3032      0.00000
     19       4.4550      0.00000
     20       5.3049      0.00000
     21       6.2664      0.00000
     22       6.4391      0.00000
     23       7.5873      0.00000
     24       8.2601      0.00000
     25       8.5875      0.00000
     26       9.4714      0.00000
     27      10.2820      0.00000
     28      10.9266      0.00000
     29      11.2765      0.00000
     30      11.4647      0.00000
     31      12.3024      0.00000
     32      13.0961      0.00000
     33      14.2941      0.00000
     34      14.3897      0.00000
     35      14.6300      0.00000
     36      15.9370      0.00000
     37      16.4497      0.00000
     38      18.1141      0.00000
     39      18.3176      0.00000
     40      18.5931      0.00000
     41      19.1953      0.00000
     42      19.5307      0.00000
     43      20.0996      0.00000
     44      20.4228      0.00000
     45      20.9672      0.00000
     46      21.5628      0.00000
     47      21.8795      0.00000
     48      22.5893      0.00000

 k-point     4 :       0.2500    0.0000    0.0000
  band No.  band energies     occupation 
      1     -62.2895      2.00000
      2     -36.6612      2.00000
      3     -36.6521      2.00000
      4     -36.4698      2.00000
      5     -15.2242      2.00000
      6     -14.3787      2.00000
      7      -7.0842      2.00000
      8      -5.7521      2.00000
      9      -5.6278      2.00000
     10      -4.4105      2.00000
     11      -3.6287      2.00000
     12      -3.2196      2.00000
     13      -2.6864      2.00000
     14       0.3102      0.00000
     15       0.6245      0.00000
     16       1.1571      0.00000
     17       2.1300      0.00000
     18       4.8864      0.00000
     19       5.0647      0.00000
     20       5.9230      0.00000
     21       6.8390      0.00000
     22       6.8671      0.00000
     23       7.6108      0.00000
     24       7.8518      0.00000
     25       8.5195      0.00000
     26       9.9550      0.00000
     27      10.8098      0.00000
     28      11.0629      0.00000
     29      11.4088      0.00000
     30      12.1766      0.00000
     31      12.6927      0.00000
     32      12.9988      0.00000
     33      13.7541      0.00000
     34      14.1890      0.00000
     35      14.8859      0.00000
     36      15.7601      0.00000
     37      15.9037      0.00000
     38      16.6650      0.00000
     39      17.1358      0.00000
     40      17.5635      0.00000
     41      18.2110      0.00000
     42      19.3542      0.00000
     43      19.9171      0.00000
     44      20.5924      0.00000
     45      20.9637      0.00000
     46      21.5502      0.00000
     47      22.2340      0.00000
     48      22.9105      0.00000

 k-point     5 :       0.3333    0.0000    0.0000
  band No.  band energies     occupation 
      1     -62.2769      2.00000
      2     -36.7670      2.00000
      3     -36.6372      2.00000
      4     -36.4964      2.00000
      5     -14.6848      2.00000
      6     -14.1711      2.00000
      7      -7.3465      2.00000
      8      -6.2572      2.00000
      9      -5.8434      2.00000
     10      -4.7955      2.00000
     11      -3.5471      2.00000
     12      -3.1664      2.00000
     13      -2.9423      2.00000
     14       0.4850      0.00000
     15       0.5128      0.00000
     16       1.6506      0.00000
     17       2.4465      0.00000
     18       5.4795      0.00000
     19       5.6479      0.00000
     20       6.1366      0.00000
     21       6.7086      0.00000
     22       6.7776      0.00000
     23       7.8457      0.00000
     24       8.0115      0.00000
     25       9.3720      0.00000
     26       9.9002      0.00000
     27      10.9524      0.00000
     28      11.3937      0.00000
     29      11.4421      0.00000
     30      11.9657      0.00000
     31      13.3542      0.00000
     32      13.4425      0.00000
     33      13.6690      0.00000
     34      14.1114      0.00000
     35      14.1390      0.00000
     36      14.6430      0.00000
     37      15.3292      0.00000
     38      15.9232      0.00000
     39      16.5553      0.00000
     40      17.0801      0.00000
     41      18.0027      0.00000
     42      18.5303      0.00000
     43      18.7812      0.00000
     44      19.6930      0.00000
     45      20.7571      0.00000
     46      21.4008      0.00000
     47      21.8481      0.00000
     48      22.3187      0.00000

 k-point     6 :       0.4167    0.0000    0.0000
  band No.  band energies     occupation 
      1     -62.2677      2.00000
      2     -36.8499      2.00000
      3     -36.6196      2.00000
      4     -36.5158      2.00000
      5     -14.2302      2.00000
      6     -14.0034      2.00000
      7      -7.7351      2.00000
      8      -6.7168      2.00000
      9      -5.9930      2.00000
     10      -5.0448      2.00000
     11      -3.7557      2.00000
     12      -2.8506      2.00000
     13      -2.7299      2.00000
     14       0.5122      0.00000
     15       0.8603      0.00000
     16       1.9876      0.00000
     17       2.6135      0.00000
     18       4.8729      0.00000
     19       5.8645      0.00000
     20       6.1657      0.00000
     21       7.0436      0.00000
     22       7.7212      0.00000
     23       8.2990      0.00000
     24       8.4661      0.00000
     25       9.4515      0.00000
     26       9.7496      0.00000
     27      10.5570      0.00000
     28      10.9270      0.00000
     29      11.4085      0.00000
     30      11.5439      0.00000
     31      12.0981      0.00000
     32      12.5694      0.00000
     33      13.7450      0.00000
     34      13.8447      0.00000
     35      14.8561      0.00000
     36      15.1215      0.00000
     37      15.5248      0.00000
     38      16.2170      0.00000
     39      16.6439      0.00000
     40      17.7603      0.00000
     41      17.9244      0.00000
     42      18.5067      0.00000
     43      19.0692      0.00000
     44      19.8779      0.00000
     45      20.1698      0.00000
     46      20.4231      0.00000
     47      20.7824      0.00000
     48      21.2011      0.00000

 k-point     7 :       0.5000    0.0000    0.0000
  band No.  band energies     occupation 
      1     -62.2643      2.00000
      2     -36.8800      2.00000
      3     -36.6131      2.00000
      4     -36.5229      2.00000
      5     -14.0457      2.00000
      6     -13.9381      2.00000
      7      -7.9033      2.00000
      8      -6.8871      2.00000
      9      -6.0965      2.00000
     10      -5.1306      2.00000
     11      -3.8226      2.00000
     12      -2.7453      2.00000
     13      -2.5375      2.00000
     14       0.5601      0.00000
     15       1.0658      0.00000
     16       2.0836      0.00000
     17       2.6631      0.00000
     18       4.3138      0.00000
     19       5.9977      0.00000
     20       6.4727      0.00000
     21       7.1652      0.00000
     22       7.8871      0.00000
     23       8.7054      0.00000
     24       9.1858      0.00000
     25       9.4911      0.00000
     26      10.0082      0.00000
     27      10.1045      0.00000
     28      10.1753      0.00000
     29      10.6848      0.00000
     30      10.8498      0.00000
     31      12.1626      0.00000
     32      12.4958      0.00000
     33      13.0254      0.00000
     34      13.7541      0.00000
     35      15.0677      0.00000
     36      15.3338      0.00000
     37      15.5639      0.00000
     38      16.0259      0.00000
     39      16.9726      0.00000
     40      17.5407      0.00000
     41      18.2561      0.00000
     42      18.5403      0.00000
     43      19.0024      0.00000
     44      19.3527      0.00000
     45      19.8924      0.00000
     46      20.0721      0.00000
     47      20.5229      0.00000
     48      21.1386      0.00000

 k-point     8 :       0.0833    0.0833    0.0000
  band No.  band energies     occupation 
      1     -62.3049      2.00000
      2     -36.6905      2.00000
      3     -36.5061      2.00000
      4     -36.4384      2.00000
      5     -15.8051      2.00000
      6     -14.6081      2.00000
      7      -7.3805      2.00000
      8      -5.1648      2.00000
      9      -4.7159      2.00000
     10      -4.2070      2.00000
     11      -3.9483      2.00000
     12      -2.8355      2.00000
     13      -2.1644      2.00000
     14       0.6054      0.00000
     15       0.7349      0.00000
     16       0.9752      0.00000
     17       1.6013      0.00000
     18       4.1778      0.00000
     19       4.3245      0.00000
     20       5.1767      0.00000
     21       5.9816      0.00000
     22       6.3187      0.00000
     23       7.4732      0.00000
     24       8.4115      0.00000
     25       8.7116      0.00000
     26       9.3385      0.00000
     27      10.1720      0.00000
     28      10.6913      0.00000
     29      10.9671      0.00000
     30      11.6260      0.00000
     31      12.1221      0.00000
     32      13.4836      0.00000
     33      14.3833      0.00000
     34      14.5248      0.00000
     35      14.8307      0.00000
     36      15.7459      0.00000
     37      16.1063      0.00000
     38      17.5821      0.00000
     39      18.5490      0.00000
     40      19.2992      0.00000
     41      19.4754      0.00000
     42      19.8198      0.00000
     43      20.0060      0.00000
     44      20.5211      0.00000
     45      20.9407      0.00000
     46      21.1393      0.00000
     47      21.9640      0.00000
     48      22.5712      0.00000

 k-point     9 :       0.1667    0.0833    0.0000
  band No.  band energies     occupation 
      1     -62.2941      2.00000
      2     -36.6699      2.00000
      3     -36.6038      2.00000
      4     -36.4658      2.00000
      5     -15.4051      2.00000
      6     -14.4489      2.00000
      7      -7.0870      2.00000
      8      -5.6332      2.00000
      9      -5.2822      2.00000
     10      -4.5366      2.00000
     11      -3.8632      2.00000
     12      -2.8591      2.00000
     13      -2.4968      2.00000
     14       0.2519      0.00000
     15       0.7232      0.00000
     16       0.8019      0.00000
     17       2.0926      0.00000
     18       4.6935      0.00000
     19       4.8422      0.00000
     20       5.7147      0.00000
     21       6.7894      0.00000
     22       7.0495      0.00000
     23       7.8622      0.00000
     24       8.1328      0.00000
     25       8.4367      0.00000
     26       9.7308      0.00000
     27      10.4566      0.00000
     28      10.7238      0.00000
     29      11.2531      0.00000
     30      11.7110      0.00000
     31      12.0715      0.00000
     32      13.1210      0.00000
     33      13.6466      0.00000
     34      14.5755      0.00000
     35      14.7418      0.00000
     36      16.0730      0.00000
     37      16.8940      0.00000
     38      17.1266      0.00000
     39      17.4041      0.00000
     40      18.4094      0.00000
     41      18.6883      0.00000
     42      19.0019      0.00000
     43      19.1730      0.00000
     44      19.5946      0.00000
     45      19.9727      0.00000
     46      20.3151      0.00000
     47      21.0194      0.00000
     48      21.8885      0.00000

 k-point    10 :       0.2500    0.0833    0.0000
  band No.  band energies     occupation 
      1     -62.2815      2.00000
      2     -36.7147      2.00000
      3     -36.6460      2.00000
      4     -36.4976      2.00000
      5     -14.8928      2.00000
      6     -14.2473      2.00000
      7      -7.1293      2.00000
      8      -5.9535      2.00000
      9      -5.7835      2.00000
     10      -4.9289      2.00000
     11      -3.6175      2.00000
     12      -3.1760      2.00000
     13      -2.7831      2.00000
     14       0.1929      0.00000
     15       0.6773      0.00000
     16       1.2105      0.00000
     17       2.4629      0.00000
     18       5.3394      0.00000
     19       5.5062      0.00000
     20       6.4394      0.00000
     21       6.8021      0.00000
     22       7.0075      0.00000
     23       7.8046      0.00000
     24       7.9234      0.00000
     25       9.0669      0.00000
     26       9.9593      0.00000
     27      10.8729      0.00000
     28      11.1260      0.00000
     29      11.2674      0.00000
     30      11.7269      0.00000
     31      12.2687      0.00000
     32      13.9025      0.00000
     33      14.3129      0.00000
     34      14.5277      0.00000
     35      14.7061      0.00000
     36      15.0141      0.00000
     37      15.7094      0.00000
     38      15.9088      0.00000
     39      16.7365      0.00000
     40      17.3938      0.00000
     41      17.7913      0.00000
     42      18.2183      0.00000
     43      18.7110      0.00000
     44      19.6348      0.00000
     45      20.2132      0.00000
     46      20.6151      0.00000
     47      21.7621      0.00000
     48      23.0617      0.00000

 k-point    11 :       0.3333    0.0833    0.0000
  band No.  band energies     occupation 
      1     -62.2706      2.00000
      2     -36.8092      2.00000
      3     -36.6252      2.00000
      4     -36.5249      2.00000
      5     -14.3858      2.00000
      6     -14.0532      2.00000
      7      -7.4854      2.00000
      8      -6.5677      2.00000
      9      -5.8469      2.00000
     10      -5.1000      2.00000
     11      -3.5389      2.00000
     12      -3.5053      2.00000
     13      -2.6335      2.00000
     14       0.3924      0.00000
     15       0.8152      0.00000
     16       1.7027      0.00000
     17       2.5829      0.00000
     18       5.4869      0.00000
     19       6.0407      0.00000
     20       6.1675      0.00000
     21       7.0518      0.00000
     22       7.3829      0.00000
     23       8.2566      0.00000
     24       8.3840      0.00000
     25       9.4922      0.00000
     26       9.7616      0.00000
     27      10.2729      0.00000
     28      11.2379      0.00000
     29      11.6011      0.00000
     30      12.1805      0.00000
     31      12.7240      0.00000
     32      12.8727      0.00000
     33      13.2677      0.00000
     34      13.7867      0.00000
     35      14.4891      0.00000
     36      14.8472      0.00000
     37      14.9988      0.00000
     38      15.8469      0.00000
     39      16.5840      0.00000
     40      16.7975      0.00000
     41      17.5147      0.00000
     42      17.8937      0.00000
     43      18.0986      0.00000
     44      18.5849      0.00000
     45      19.6981      0.00000
     46      20.1486      0.00000
     47      20.8603      0.00000
     48      22.1635      0.00000

 k-point    12 :       0.4167    0.0833    0.0000
  band No.  band energies     occupation 
      1     -62.2643      2.00000
      2     -36.8632      2.00000
      3     -36.6131      2.00000
      4     -36.5407      2.00000
      5     -14.0538      2.00000
      6     -13.9307      2.00000
      7      -7.7581      2.00000
      8      -6.9277      2.00000
      9      -6.0227      2.00000
     10      -5.1488      2.00000
     11      -3.7669      2.00000
     12      -3.3450      2.00000
     13      -2.3752      2.00000
     14       0.5542      0.00000
     15       1.0679      0.00000
     16       2.1081      0.00000
     17       2.4410      0.00000
     18       4.5775      0.00000
     19       6.4435      0.00000
     20       6.6893      0.00000
     21       7.2455      0.00000
     22       8.0857      0.00000
     23       8.6665      0.00000
     24       8.6965      0.00000
     25       9.3927      0.00000
     26       9.9536      0.00000
     27      10.0200      0.00000
     28      10.5271      0.00000
     29      11.1386      0.00000
     30      11.3046      0.00000
     31      12.3215      0.00000
     32      12.5005      0.00000
     33      13.5479      0.00000
     34      13.7912      0.00000
     35      14.2516      0.00000
     36      15.0116      0.00000
     37      15.4906      0.00000
     38      15.8792      0.00000
     39      16.4736      0.00000
     40      16.8254      0.00000
     41      17.4664      0.00000
     42      17.6999      0.00000
     43      17.9562      0.00000
     44      18.6201      0.00000
     45      19.3042      0.00000
     46      20.1557      0.00000
     47      20.6909      0.00000
     48      21.4872      0.00000

 k-point    13 :       0.1667    0.1667    0.0000
  band No.  band energies     occupation 
      1     -62.2832      2.00000
      2     -36.6879      2.00000
      3     -36.6492      2.00000
      4     -36.5058      2.00000
      5     -14.9666      2.00000
      6     -14.2734      2.00000
      7      -7.0174      2.00000
      8      -5.7449      2.00000
      9      -5.7087      2.00000
     10      -5.2020      2.00000
     11      -3.8542      2.00000
     12      -2.8837      2.00000
     13      -2.7160      2.00000
     14       0.0601      0.00000
     15       0.7380      0.00000
     16       0.8927      0.00000
     17       2.5310      0.00000
     18       5.2958      0.00000
     19       5.4460      0.00000
     20       6.3756      0.00000
     21       7.2803      0.00000
     22       7.2805      0.00000
     23       7.9155      0.00000
     24       8.2554      0.00000
     25       8.7675      0.00000
     26       9.7991      0.00000
     27      10.5692      0.00000
     28      10.9223      0.00000
     29      11.0732      0.00000
     30      11.5781      0.00000
     31      11.7817      0.00000
     32      13.9877      0.00000
     33      14.0828      0.00000
     34      15.0152      0.00000
     35      15.3034      0.00000
     36      16.0642      0.00000
     37      16.1839      0.00000
     38      16.4716      0.00000
     39      16.7964      0.00000
     40      17.1054      0.00000
     41      17.4875      0.00000
     42      18.0828      0.00000
     43      18.4225      0.00000
     44      18.7546      0.00000
     45      19.3174      0.00000
     46      19.6938      0.00000
     47      20.6259      0.00000
     48      21.1538      0.00000

 k-point    14 :       0.2500    0.1667    0.0000
  band No.  band energies     occupation 
      1     -62.2723      2.00000
      2     -36.7667      2.00000
      3     -36.6284      2.00000
      4     -36.5499      2.00000
      5     -14.4757      2.00000
      6     -14.0770      2.00000
      7      -7.2156      2.00000
      8      -6.4385      2.00000
      9      -5.6345      2.00000
     10      -5.3141      2.00000
     11      -4.1767      2.00000
     12      -3.2081      2.00000
     13      -2.6480      2.00000
     14       0.2269      0.00000
     15       0.8814      0.00000
     16       1.2152      0.00000
     17       2.7581      0.00000
     18       5.8770      0.00000
     19       6.1472      0.00000
     20       6.5618      0.00000
     21       7.2399      0.00000
     22       7.4824      0.00000
     23       8.3310      0.00000
     24       8.4221      0.00000
     25       9.3988      0.00000
     26       9.8125      0.00000
     27      10.0525      0.00000
     28      11.1581      0.00000
     29      11.3190      0.00000
     30      11.9390      0.00000
     31      12.3462      0.00000
     32      13.1251      0.00000
     33      13.6491      0.00000
     34      14.3031      0.00000
     35      14.6531      0.00000
     36      14.8707      0.00000
     37      15.4131      0.00000
     38      15.8281      0.00000
     39      16.2627      0.00000
     40      16.4021      0.00000
     41      16.5601      0.00000
     42      17.0746      0.00000
     43      17.7831      0.00000
     44      18.0077      0.00000
     45      18.7170      0.00000
     46      18.9902      0.00000
     47      20.2303      0.00000
     48      20.4581      0.00000

 k-point    15 :       0.3333    0.1667    0.0000
  band No.  band energies     occupation 
      1     -62.2643      2.00000
      2     -36.8222      2.00000
      3     -36.6132      2.00000
      4     -36.5835      2.00000
      5     -14.0697      2.00000
      6     -13.9157      2.00000
      7      -7.4195      2.00000
      8      -7.0023      2.00000
      9      -5.7974      2.00000
     10      -5.2102      2.00000
     11      -4.2745      2.00000
     12      -3.6137      2.00000
     13      -2.3905      2.00000
     14       0.4642      0.00000
     15       1.1225      0.00000
     16       1.5472      0.00000
     17       2.7725      0.00000
     18       5.2139      0.00000
     19       6.8018      0.00000
     20       6.8695      0.00000
     21       7.8035      0.00000
     22       7.9786      0.00000
     23       8.4628      0.00000
     24       8.8901      0.00000
     25       9.3202      0.00000
     26      10.0951      0.00000
     27      10.2120      0.00000
     28      11.2286      0.00000
     29      11.4974      0.00000
     30      11.9718      0.00000
     31      12.4914      0.00000
     32      12.6730      0.00000
     33      13.0601      0.00000
     34      13.3893      0.00000
     35      13.6878      0.00000
     36      14.3664      0.00000
     37      14.5887      0.00000
     38      15.2846      0.00000
     39      15.7128      0.00000
     40      15.8375      0.00000
     41      16.1191      0.00000
     42      17.0274      0.00000
     43      17.8363      0.00000
     44      17.9945      0.00000
     45      18.4108      0.00000
     46      19.4197      0.00000
     47      20.5278      0.00000
     48      21.5746      0.00000

 k-point    16 :       0.4167    0.1667    0.0000
  band No.  band energies     occupation 
      1     -62.2614      2.00000
      2     -36.8423      2.00000
      3     -36.6076      2.00000
      4     -36.5961      2.00000
      5     -13.9079      2.00000
      6     -13.8521      2.00000
      7      -7.4938      2.00000
      8      -7.2079      2.00000
      9      -5.9555      2.00000
     10      -5.1231      2.00000
     11      -4.2508      2.00000
     12      -3.8116      2.00000
     13      -2.2029      2.00000
     14       0.4336      0.00000
     15       1.3756      0.00000
     16       1.6904      0.00000
     17       2.7294      0.00000
     18       4.7042      0.00000
     19       7.3292      0.00000
     20       7.4036      0.00000
     21       7.6799      0.00000
     22       7.7625      0.00000
     23       8.9909      0.00000
     24       8.9990      0.00000
     25       9.7065      0.00000
     26       9.9940      0.00000
     27      10.4230      0.00000
     28      10.5682      0.00000
     29      11.1469      0.00000
     30      11.2487      0.00000
     31      12.4540      0.00000
     32      12.6168      0.00000
     33      12.8521      0.00000
     34      13.7343      0.00000
     35      14.2056      0.00000
     36      14.4643      0.00000
     37      14.7018      0.00000
     38      15.2586      0.00000
     39      15.6990      0.00000
     40      15.9039      0.00000
     41      16.4234      0.00000
     42      17.2552      0.00000
     43      17.6576      0.00000
     44      17.7650      0.00000
     45      18.4189      0.00000
     46      19.4282      0.00000
     47      20.5381      0.00000
     48      22.2358      0.00000

 k-point    17 :       0.2500    0.2500    0.0000
  band No.  band energies     occupation 
      1     -62.2643      2.00000
      2     -36.7949      2.00000
      3     -36.6132      2.00000
      4     -36.6119      2.00000
      5     -14.0775      2.00000
      6     -13.9082      2.00000
      7      -7.2164      2.00000
      8      -7.0370      2.00000
      9      -5.5083      2.00000
     10      -5.2494      2.00000
     11      -4.8994      2.00000
     12      -3.5186      2.00000
     13      -2.4278      2.00000
     14       0.4042      0.00000
     15       1.1569      0.00000
     16       1.2673      0.00000
     17       2.9820      0.00000
     18       5.7373      0.00000
     19       6.6043      0.00000
     20       6.8440      0.00000
     21       7.6994      0.00000
     22       8.1175      0.00000
     23       8.4573      0.00000
     24       9.1434      0.00000
     25      10.0594      0.00000
     26      10.2049      0.00000
     27      10.5912      0.00000
     28      11.2867      0.00000
     29      11.4790      0.00000
     30      11.9948      0.00000
     31      12.4739      0.00000
     32      12.9353      0.00000
     33      13.0471      0.00000
     34      13.2787      0.00000
     35      13.8551      0.00000
     36      13.8710      0.00000
     37      14.1874      0.00000
     38      14.6073      0.00000
     39      15.6006      0.00000
     40      15.6431      0.00000
     41      16.3263      0.00000
     42      16.5755      0.00000
     43      16.9499      0.00000
     44      17.7780      0.00000
     45      18.5758      0.00000
     46      19.3945      0.00000
     47      20.3832      0.00000
     48      21.4226      0.00000

 k-point    18 :       0.3333    0.2500    0.0000
  band No.  band energies     occupation 
      1     -62.2597      2.00000
      2     -36.8006      2.00000
      3     -36.6582      2.00000
      4     -36.6044      2.00000
      5     -13.8284      2.00000
      6     -13.7991      2.00000
      7      -7.4103      2.00000
      8      -7.0830      2.00000
      9      -5.8154      2.00000
     10      -5.1423      2.00000
     11      -5.0270      2.00000
     12      -3.8815      2.00000
     13      -2.1051      2.00000
     14       0.1990      0.00000
     15       1.2805      0.00000
     16       1.6218      0.00000
     17       3.1467      0.00000
     18       5.2063      0.00000
     19       6.4138      0.00000
     20       7.4187      0.00000
     21       8.2525      0.00000
     22       8.8602      0.00000
     23       9.5110      0.00000
     24       9.5819      0.00000
     25      10.3324      0.00000
     26      10.4623      0.00000
     27      10.6629      0.00000
     28      11.1869      0.00000
     29      11.2513      0.00000
     30      11.7454      0.00000
     31      12.0870      0.00000
     32      12.6409      0.00000
     33      12.7799      0.00000
     34      12.9248      0.00000
     35      13.2962      0.00000
     36      13.6183      0.00000
     37      13.8660      0.00000
     38      14.0005      0.00000
     39      14.7271      0.00000
     40      15.2355      0.00000
     41      16.0182      0.00000
     42      16.3703      0.00000
     43      16.9301      0.00000
     44      17.1956      0.00000
     45      18.4100      0.00000
     46      18.8740      0.00000
     47      19.8013      0.00000
     48      20.7390      0.00000

 k-point    19 :       0.3333    0.3333    0.0000
  band No.  band energies     occupation 
      1     -62.2580      2.00000
      2     -36.7658      2.00000
      3     -36.7125      2.00000
      4     -36.6012      2.00000
      5     -13.7523      2.00000
      6     -13.7382      2.00000
      7      -7.5718      2.00000
      8      -6.6706      2.00000
      9      -6.1287      2.00000
     10      -5.4546      2.00000
     11      -4.8544      2.00000
     12      -4.0814      2.00000
     13      -1.9072      2.00000
     14      -0.0492      0.00000
     15       1.1589      0.00000
     16       1.8892      0.00000
     17       3.3418      0.00000
     18       5.4877      0.00000
     19       5.7086      0.00000
     20       7.6868      0.00000
     21       8.8409      0.00000
     22       9.4252      0.00000
     23       9.9892      0.00000
     24      10.0806      0.00000
     25      10.4846      0.00000
     26      10.7489      0.00000
     27      11.2123      0.00000
     28      11.3327      0.00000
     29      11.4772      0.00000
     30      11.6566      0.00000
     31      11.9863      0.00000
     32      12.2703      0.00000
     33      12.4233      0.00000
     34      12.5367      0.00000
     35      12.7761      0.00000
     36      13.0406      0.00000
     37      14.1334      0.00000
     38      14.3223      0.00000
     39      14.3798      0.00000
     40      14.8974      0.00000
     41      15.1859      0.00000
     42      15.6008      0.00000
     43      17.0090      0.00000
     44      17.4916      0.00000
     45      17.9854      0.00000
     46      18.0702      0.00000
     47      19.1926      0.00000
     48      20.4098      0.00000


--------------------------------------------------------------------------------------------------------


 soft charge-density along one line, spin component           1
         0         1         2         3         4         5         6         7         8         9
 total charge-density along one line
 
 pseudopotential strength for first ion, spin component:           1
 -4.243  13.233   0.000   0.000   0.000   0.000   0.000   0.000
 13.233   3.270   0.000   0.000   0.000   0.000   0.000   0.000
  0.000   0.000 -19.696   0.000   0.000  10.951   0.000   0.000
  0.000   0.000   0.000 -19.695   0.000   0.000  10.950   0.000
  0.000   0.000   0.000   0.000 -19.696   0.000   0.000  10.951
  0.000   0.000  10.951   0.000   0.000   4.703   0.000   0.000
  0.000   0.000   0.000  10.950   0.000   0.000   4.702   0.000
  0.000   0.000   0.000   0.000  10.951   0.000   0.000   4.703
  0.000   0.000   0.000   0.000   0.012   0.000   0.000  -0.006
  0.000   0.000   0.000   0.000   0.000   0.000   0.000   0.000
  0.002  -0.001   0.000   0.000   0.000   0.000   0.000   0.000
  0.000   0.000   0.000   0.000   0.000   0.000   0.000   0.000
  0.000   0.000   0.012   0.000   0.000  -0.006   0.000   0.000
  0.000   0.000   0.000   0.000   0.013   0.000   0.000  -0.006
  0.000   0.000   0.000   0.000   0.000   0.000   0.000   0.000
  0.002  -0.001   0.000   0.000   0.000   0.000   0.000   0.000
  0.000   0.000   0.000   0.000   0.000   0.000   0.000   0.000
  0.000   0.000   0.013   0.000   0.000  -0.006   0.000   0.000
 total augmentation occupancy for first ion, spin component:           1
  1.996  -0.033   0.000   0.000   0.000   0.000   0.000   0.000   0.000   0.000  -0.004   0.000   0.000   0.000   0.000   0.003
 -0.033   1.227   0.000   0.000   0.000   0.000   0.000   0.000   0.000   0.000  -0.067   0.000   0.000   0.000   0.000   0.160
  0.000   0.000   2.001   0.000   0.000  -0.038   0.000   0.000   0.000   0.000   0.000   0.000   0.004   0.000   0.000   0.000
  0.000   0.000   0.000   2.001   0.000   0.000  -0.044   0.000   0.000   0.000   0.000   0.000   0.000   0.000   0.000   0.000
  0.000   0.000   0.000   0.000   2.001   0.000   0.000  -0.038   0.004   0.000   0.000   0.000   0.000   0.006   0.000   0.000
  0.000   0.000  -0.038   0.000   0.000   0.107   0.000   0.000   0.000   0.000   0.000   0.000   0.204   0.000   0.000   0.000
  0.000   0.000   0.000  -0.044   0.000   0.000   0.129   0.000   0.000   0.000   0.000   0.000   0.000   0.000   0.000   0.000
  0.000   0.000   0.000   0.000  -0.038   0.000   0.000   0.107   0.204   0.000   0.000   0.000   0.000  -0.229   0.000   0.000
  0.000   0.000   0.000   0.000   0.004   0.000   0.000   0.204   2.857   0.000   0.000   0.000   0.000  -3.377   0.000   0.000
  0.000   0.000   0.000   0.000   0.000   0.000   0.000   0.000   0.000   4.550   0.000   0.000   0.000   0.000  -5.626   0.000
 -0.004  -0.067   0.000   0.000   0.000   0.000   0.000   0.000   0.000   0.000   2.003   0.000   0.000   0.000   0.000  -2.287
  0.000   0.000   0.000   0.000   0.000   0.000   0.000   0.000   0.000   0.000   0.000   4.550   0.000   0.000   0.000   0.000
  0.000   0.000   0.004   0.000   0.000   0.204   0.000   0.000   0.000   0.000   0.000   0.000   2.857   0.000   0.000   0.000
  0.000   0.000   0.000   0.000   0.006   0.000   0.000  -0.229  -3.377   0.000   0.000   0.000   0.000   4.668   0.000   0.000
  0.000   0.000   0.000   0.000   0.000   0.000   0.000   0.000   0.000  -5.626   0.000   0.000   0.000   0.000   7.349   0.000
  0.003   0.160   0.000   0.000   0.000   0.000   0.000   0.000   0.000   0.000  -2.287   0.000   0.000   0.000   0.000   3.420
  0.000   0.000   0.000   0.000   0.000   0.000   0.000   0.000   0.000   0.000   0.000  -5.626   0.000   0.000   0.000   0.000
  0.000   0.000   0.006   0.000   0.000  -0.229   0.000   0.000   0.000   0.000   0.000   0.000  -3.377   0.000   0.000   0.000


------------------------ aborting loop because EDIFF is reached ----------------------------------------


 


 total charge     
 
# of ion     s       p       d       tot
----------------------------------------
  1        2.305   6.239   4.032  12.577
  2        1.362   2.346   0.000   3.708
  3        1.362   2.347   0.000   3.708
------------------------------------------------
tot        5.029  10.932   4.032  19.993
 
    CHARGE:  cpu time    0.2900: real time    0.2902
    FORLOC:  cpu time    0.0080: real time    0.0074
    FORNL :  cpu time    0.7649: real time    0.7674
    STRESS:  cpu time    2.6176: real time    2.6302
    FORCOR:  cpu time    0.0330: real time    0.0338
    FORHAR:  cpu time    0.0260: real time    0.0259
    MIXING:  cpu time    0.0030: real time    0.0023
    OFIELD:  cpu time    0.0000: real time    0.0000

  FORCE on cell =-STRESS in cart. coord.  units (eV):
  Direction    XX          YY          ZZ          XY          YZ          ZX
  --------------------------------------------------------------------------------------
  Alpha Z    28.33486    28.33486    28.33486
  Ewald    6728.40179  6728.40185 -8157.42725    -0.00003     0.00000     0.00000
  Hartree  7178.16330  7178.16330 -6940.03580     0.00000     0.00000     0.00000
  E(xc)    -108.31117  -108.31117  -108.41039     0.00000     0.00000     0.00000
  Local  -14359.42347-14359.42352 14637.85631     0.00001     0.00000     0.00000
  n-local   122.78752   122.57705   128.17350    -4.41072     0.00007    -0.00008
  augment     2.10067     2.10068     0.90660     0.00001     0.00000     0.00000
  Kinetic   406.73937   409.22850   410.57667    -8.63938     0.00022     0.00002
  Fock        0.00000     0.00000     0.00000     0.00000     0.00000     0.00000
  -------------------------------------------------------------------------------------
  Total      -0.06779    -0.06779    -0.02549     0.00000     0.00000     0.00000
  in kB      -0.67285    -0.67285    -0.25304     0.00000     0.00000     0.00000
  external pressure =       -0.53 kB  Pullay stress =        0.00 kB


 VOLUME and BASIS-vectors are now :
 -----------------------------------------------------------------------------
  energy-cutoff  :      500.00
  volume of cell :      161.41
      direct lattice vectors                 reciprocal lattice vectors
     3.123091936  0.000000000  0.000000000     0.320195505  0.184864961  0.000000000
    -1.561545968  2.704676955  0.000000000     0.000000000  0.369729922  0.000000000
     0.000000000  0.000000000 19.108805265     0.000000000  0.000000000  0.052331895

  length of vectors
     3.123091936  3.123091936 19.108805265     0.369729922  0.369729922  0.052331895


 FORCES acting on ions
    electron-ion (+dipol)            ewald-force                    non-local-force                 convergence-correction
 -----------------------------------------------------------------------------------------------
   -.181E-05 -.920E-04 0.198E-03   -.129E-04 -.150E-04 0.163E-02   -.347E-17 0.000E+00 0.000E+00   0.174E-10 0.306E-10 -.223E-08
   0.460E-04 0.283E-04 -.947E+03   0.646E-05 0.751E-05 0.950E+03   0.503E-16 -.243E-16 -.357E+01   0.238E-10 0.851E-11 -.942E-04
   0.461E-04 0.284E-04 0.947E+03   0.646E-05 0.750E-05 -.950E+03   0.399E-16 -.278E-16 0.357E+01   0.239E-10 0.862E-11 0.943E-04
 -----------------------------------------------------------------------------------------------
   0.903E-04 -.353E-04 0.299E-01   -.384E-13 0.324E-13 0.000E+00   0.867E-16 -.520E-16 0.444E-15   0.651E-10 0.478E-10 0.235E-07
 
 
 POSITION                                       TOTAL-FORCE (eV/Angst)
 -----------------------------------------------------------------------------------
      0.00000      1.80312      1.55442         0.000000      0.000000      0.000000
      1.56155      0.90156      3.10690         0.000000      0.000000      0.000397
      1.56155      0.90156      0.00190         0.000000      0.000000     -0.000397
 -----------------------------------------------------------------------------------
    total drift:                                0.000090     -0.000035      0.029940


--------------------------------------------------------------------------------------------------------



  FREE ENERGIE OF THE ION-ELECTRON SYSTEM (eV)
  ---------------------------------------------------
  free  energy   TOTEN  =       -24.36645432 eV

  energy  without entropy=      -24.36645432  energy(sigma->0) =      -24.36645432
 


--------------------------------------------------------------------------------------------------------


    POTLOK:  cpu time    0.2240: real time    0.2246


--------------------------------------------------------------------------------------------------------


     LOOP+:  cpu time   14.5728: real time   15.7141


--------------------------------------------------------------------------------------------------------



 plasma frequency squared (from intraband transitions)
  --------------------------------------------------------------------------------------
       0.000       0.000       0.000
       0.000       0.000       0.000
       0.000       0.000       0.000

 electrical conductivity sigma (Mega S m-1) (frequency dependency in vasprun.xml)
  --------------------------------------------------------------------------------------
       0.000       0.000       0.000
       0.000       0.000       0.000
       0.000       0.000       0.000

 plasma frequency squared (from intraband transitions)
  --------------------------------------------------------------------------------------


 plasma frequency squared (from interband transitions, int dw w eps(2)(w)
  --------------------------------------------------------------------------------------
     167.415       0.000       0.000
       0.000     167.415       0.000
       0.000       0.000     169.395
  --------------------------------------------------------------------------------------
 plasma frequency squared  (valence only):     222.107

  frequency dependent IMAGINARY DIELECTRIC FUNCTION (independent particle, no local field effects)
     E(ev)      X         Y         Z        XY        YZ        ZX
  --------------------------------------------------------------------------------------
    0.000000    0.000000    0.000000    0.000000    0.000000    0.000000    0.000000
    0.523745    0.045785    0.045785    0.007164    0.000000    0.000000    0.000000
    1.047490    0.119278    0.119278    0.015398    0.000000    0.000000    0.000000
    1.571234    0.392350    0.392350    0.026413    0.000000    0.000000    0.000000
    2.094979    1.395313    1.395313    0.044502    0.000000    0.000000    0.000000
    2.618724    5.226322    5.226322    0.092751    0.000000    0.000000    0.000000
    3.142469    7.406441    7.406441    0.408680    0.000000    0.000000    0.000000
    3.666214    7.138514    7.138514    0.815282    0.000000    0.000000    0.000000
    4.189959    3.294095    3.294095    0.758156    0.000000    0.000000    0.000000
    4.713703    4.117543    4.117543    2.925999    0.000000    0.000000    0.000000
    5.237448    4.333400    4.333400    5.902043    0.000000    0.000000    0.000000
    5.761193    2.455765    2.455765    7.236885    0.000000    0.000000    0.000000
    6.284938    2.537490    2.537490    2.415909    0.000000    0.000000    0.000000
    6.808683    2.414625    2.414625    2.042737    0.000000    0.000000    0.000000
    7.332428    1.391437    1.391437    1.707349    0.000000    0.000000    0.000000
    7.856172    1.303771    1.303771    2.000686    0.000000    0.000000    0.000000
    8.379917    0.707066    0.707066    3.356256    0.000000    0.000000    0.000000
    8.903662    0.881019    0.881019    1.953147    0.000000    0.000000    0.000000
    9.427407    1.038565    1.038565    1.253252    0.000000    0.000000    0.000000
    9.951152    1.117736    1.117736    2.739823    0.000000    0.000000    0.000000
   10.474896    2.065322    2.065322    2.481381    0.000000    0.000000    0.000000
   10.998641    2.014894    2.014894    1.455709    0.000000    0.000000    0.000000
   11.522386    1.582176    1.582176    1.751194    0.000000    0.000000    0.000000
   12.046131    1.058006    1.058006    1.429349    0.000000    0.000000    0.000000
   12.569876    1.086657    1.086657    1.010118    0.000000    0.000000    0.000000
   13.093621    0.713647    0.713647    0.965041    0.000000    0.000000    0.000000
   13.617365    0.910884    0.910884    0.743975    0.000000    0.000000    0.000000
   14.141110    0.593730    0.593730    0.729840    0.000000    0.000000    0.000000
   14.664855    0.537530    0.537530    0.715797    0.000000    0.000000    0.000000
   15.188600    0.642625    0.642625    0.394577    0.000000    0.000000    0.000000
   15.712345    0.402450    0.402450    0.395745    0.000000    0.000000    0.000000
   16.236090    0.435242    0.435242    0.289327    0.000000    0.000000    0.000000
   16.759834    0.336593    0.336593    0.297251    0.000000    0.000000    0.000000
   17.283579    0.228681    0.228681    0.269122    0.000000    0.000000    0.000000
   17.807324    0.221314    0.221314    0.168602    0.000000    0.000000    0.000000
   18.331069    0.234354    0.234354    0.140872    0.000000    0.000000    0.000000
   18.854814    0.181786    0.181786    0.148469    0.000000    0.000000    0.000000
   19.378558    0.158229    0.158229    0.097019    0.000000    0.000000    0.000000
[...]
   97.940282    0.000039    0.000039    0.000040    0.000000    0.000000    0.000000
   98.464027    0.000039    0.000039    0.000039    0.000000    0.000000    0.000000
   98.987772    0.000038    0.000038    0.000038    0.000000    0.000000    0.000000
   99.511517    0.000037    0.000037    0.000038    0.000000    0.000000    0.000000
  100.035261    0.000037    0.000037    0.000037    0.000000    0.000000    0.000000
  100.559006    0.000036    0.000036    0.000036    0.000000    0.000000    0.000000
  101.082751    0.000035    0.000035    0.000036    0.000000    0.000000    0.000000
  101.606496    0.000035    0.000035    0.000035    0.000000    0.000000    0.000000
  102.130241    0.000034    0.000034    0.000035    0.000000    0.000000    0.000000
  102.653985    0.000034    0.000034    0.000034    0.000000    0.000000    0.000000
  103.177730    0.000033    0.000033    0.000033    0.000000    0.000000    0.000000
  103.701475    0.000033    0.000033    0.000033    0.000000    0.000000    0.000000
  104.225220    0.000032    0.000032    0.000032    0.000000    0.000000    0.000000

  frequency dependent      REAL DIELECTRIC FUNCTION (independent particle, no local field effects)
     E(ev)      X         Y         Z        XY        YZ        ZX
  --------------------------------------------------------------------------------------
    0.000000    5.684558    5.684558    3.382200    0.000000    0.000000    0.000000
    0.523745    5.799379    5.799379    3.400717    0.000000    0.000000    0.000000
    1.047490    6.205108    6.205108    3.458942    0.000000    0.000000    0.000000
    1.571234    7.273257    7.273257    3.566376    0.000000    0.000000    0.000000
    2.094979    8.730488    8.730488    3.746411    0.000000    0.000000    0.000000
    2.618724   10.802352   10.802352    4.071594    0.000000    0.000000    0.000000
    3.142469    2.062575    2.062575    4.535025    0.000000    0.000000    0.000000
    3.666214    2.028358    2.028358    4.597096    0.000000    0.000000    0.000000
    4.189959    3.280391    3.280391    4.608776    0.000000    0.000000    0.000000
    4.713703   -0.324660   -0.324660    6.624479    0.000000    0.000000    0.000000
    5.237448    0.101878    0.101878    6.770193    0.000000    0.000000    0.000000
    5.761193    0.407761    0.407761    0.960924    0.000000    0.000000    0.000000
    6.284938   -0.028027   -0.028027   -1.081832    0.000000    0.000000    0.000000
    6.808683   -0.338842   -0.338842    0.742652    0.000000    0.000000    0.000000
    7.332428   -0.351009   -0.351009    1.215427    0.000000    0.000000    0.000000
    7.856172    0.189009    0.189009    2.237266    0.000000    0.000000    0.000000
    8.379917    0.262489    0.262489    1.224009    0.000000    0.000000    0.000000
    8.903662    1.038441    1.038441    0.225272    0.000000    0.000000    0.000000
    9.427407    0.908997    0.908997    1.308392    0.000000    0.000000    0.000000
    9.951152    1.337310    1.337310   -0.090114    0.000000    0.000000    0.000000
   10.474896    0.593688    0.593688   -0.282364    0.000000    0.000000    0.000000
   10.998641    0.233175    0.233175   -0.156496    0.000000    0.000000    0.000000
   11.522386   -0.082021   -0.082021    0.130657    0.000000    0.000000    0.000000
   12.046131    0.051675    0.051675    0.073626    0.000000    0.000000    0.000000
   12.569876    0.346157    0.346157   -0.226768    0.000000    0.000000    0.000000
   13.093621    0.034692    0.034692   -0.281528    0.000000    0.000000    0.000000
   13.617365    0.256139    0.256139    0.223893    0.000000    0.000000    0.000000
   14.141110    0.103317    0.103317   -0.002988    0.000000    0.000000    0.000000
   14.664855    0.227243    0.227243   -0.095037    0.000000    0.000000    0.000000
   15.188600    0.100546    0.100546   -0.034783    0.000000    0.000000    0.000000
   15.712345    0.166053    0.166053    0.111833    0.000000    0.000000    0.000000
   16.236090    0.303134    0.303134    0.215475    0.000000    0.000000    0.000000
   16.759834    0.240033    0.240033    0.254381    0.000000    0.000000    0.000000
   17.283579    0.350600    0.350600    0.260780    0.000000    0.000000    0.000000
   17.807324    0.383149    0.383149    0.316399    0.000000    0.000000    0.000000
   18.331069    0.438052    0.438052    0.386686    0.000000    0.000000    0.000000
   18.854814    0.463708    0.463708    0.436521    0.000000    0.000000    0.000000
   19.378558    0.464537    0.464537    0.479143    0.000000    0.000000    0.000000
   19.902303    0.524285    0.524285    0.499135    0.000000    0.000000    0.000000
   20.426048    0.541875    0.541875    0.547562    0.000000    0.000000    0.000000
   20.949793    0.591351    0.591351    0.572662    0.000000    0.000000    0.000000
   21.473538    0.603984    0.603984    0.615347    0.000000    0.000000    0.000000
   21.997283    0.623705    0.623705    0.620881    0.000000    0.000000    0.000000
   22.521027    0.656619    0.656619    0.639436    0.000000    0.000000    0.000000
   23.044772    0.682324    0.682324    0.663936    0.000000    0.000000    0.000000
   23.568517    0.695753    0.695753    0.692553    0.000000    0.000000    0.000000
   24.092262    0.715060    0.715060    0.701341    0.000000    0.000000    0.000000
   24.616007    0.724151    0.724151    0.717910    0.000000    0.000000    0.000000
   25.139752    0.748753    0.748753    0.741617    0.000000    0.000000    0.000000
   25.663496    0.758510    0.758510    0.756426    0.000000    0.000000    0.000000
   26.187241    0.773140    0.773140    0.771289    0.000000    0.000000    0.000000
   26.710986    0.784792    0.784792    0.773822    0.000000    0.000000    0.000000
   27.234731    0.799596    0.799596    0.792289    0.000000    0.000000    0.000000
   27.758476    0.813274    0.813274    0.803183    0.000000    0.000000    0.000000
   28.282220    0.823232    0.823232    0.817240    0.000000    0.000000    0.000000
   28.805965    0.837408    0.837408    0.828109    0.000000    0.000000    0.000000
   29.329710    0.847383    0.847383    0.836582    0.000000    0.000000    0.000000
   29.853455    0.857343    0.857343    0.848660    0.000000    0.000000    0.000000
   30.377200    0.869355    0.869355    0.859367    0.000000    0.000000    0.000000
   30.900945    0.878792    0.878792    0.869354    0.000000    0.000000    0.000000
   31.424689    0.889931    0.889931    0.879925    0.000000    0.000000    0.000000
   31.948434    0.900490    0.900490    0.890234    0.000000    0.000000    0.000000
   32.472179    0.911239    0.911239    0.900986    0.000000    0.000000    0.000000
   32.995924    0.923331    0.923331    0.912396    0.000000    0.000000    0.000000
   33.519669    0.935925    0.935925    0.923854    0.000000    0.000000    0.000000
   34.043414    0.952488    0.952488    0.938018    0.000000    0.000000    0.000000
   34.567158    0.970200    0.970200    0.954234    0.000000    0.000000    0.000000
   35.090903    0.995922    0.995922    0.975346    0.000000    0.000000    0.000000
   35.614648    1.033429    1.033429    1.006009    0.000000    0.000000    0.000000
   36.138393    1.105453    1.105453    1.062292    0.000000    0.000000    0.000000
   36.662138    1.277857    1.277857    1.204581    0.000000    0.000000    0.000000
   37.185882    1.082040    1.082040    1.025016    0.000000    0.000000    0.000000
   37.709627    0.773276    0.773276    0.891043    0.000000    0.000000    0.000000
   38.233372    0.727997    0.727997    0.776597    0.000000    0.000000    0.000000
   38.757117    0.728174    0.728174    0.828255    0.000000    0.000000    0.000000
   39.280862    0.752595    0.752595    0.772036    0.000000    0.000000    0.000000
   39.804607    0.748715    0.748715    0.749171    0.000000    0.000000    0.000000
   40.328351    0.808039    0.808039    0.783173    0.000000    0.000000    0.000000
   40.852096    0.845765    0.845765    0.835900    0.000000    0.000000    0.000000
   41.375841    0.875136    0.875136    0.854158    0.000000    0.000000    0.000000
   41.899586    0.872636    0.872636    0.855467    0.000000    0.000000    0.000000
   42.423331    0.863592    0.863592    0.867459    0.000000    0.000000    0.000000
   42.947076    0.878089    0.878089    0.882726    0.000000    0.000000    0.000000
   43.470820    0.878595    0.878595    0.880013    0.000000    0.000000    0.000000
   43.994565    0.877123    0.877123    0.881392    0.000000    0.000000    0.000000
   44.518310    0.888542    0.888542    0.879780    0.000000    0.000000    0.000000
   45.042055    0.880876    0.880876    0.877362    0.000000    0.000000    0.000000
   45.565800    0.890911    0.890911    0.887179    0.000000    0.000000    0.000000
   46.089544    0.891250    0.891250    0.895542    0.000000    0.000000    0.000000
   46.613289    0.903741    0.903741    0.897727    0.000000    0.000000    0.000000
   47.137034    0.902492    0.902492    0.905197    0.000000    0.000000    0.000000
   47.660779    0.908310    0.908310    0.906165    0.000000    0.000000    0.000000
   48.184524    0.891222    0.891222    0.900827    0.000000    0.000000    0.000000
   48.708269    0.901945    0.901945    0.897877    0.000000    0.000000    0.000000
   49.232013    0.908975    0.908975    0.905850    0.000000    0.000000    0.000000
   49.755758    0.908595    0.908595    0.908878    0.000000    0.000000    0.000000
   50.279503    0.915816    0.915816    0.912148    0.000000    0.000000    0.000000
   50.803248    0.918190    0.918190    0.917730    0.000000    0.000000    0.000000
   51.326993    0.917311    0.917311    0.916150    0.000000    0.000000    0.000000
   51.850738    0.919199    0.919199    0.918796    0.000000    0.000000    0.000000
   52.374482    0.924011    0.924011    0.923006    0.000000    0.000000    0.000000
   52.898227    0.922495    0.922495    0.921907    0.000000    0.000000    0.000000
   53.421972    0.925115    0.925115    0.925396    0.000000    0.000000    0.000000
   53.945717    0.928463    0.928463    0.927098    0.000000    0.000000    0.000000
   54.469462    0.929379    0.929379    0.929296    0.000000    0.000000    0.000000
   54.993206    0.932271    0.932271    0.931529    0.000000    0.000000    0.000000
   55.516951    0.933229    0.933229    0.931481    0.000000    0.000000    0.000000
   56.040696    0.934210    0.934210    0.934216    0.000000    0.000000    0.000000
   56.564441    0.936282    0.936282    0.935536    0.000000    0.000000    0.000000
   57.088186    0.937870    0.937870    0.936842    0.000000    0.000000    0.000000
   57.611931    0.938850    0.938850    0.937870    0.000000    0.000000    0.000000
   58.135675    0.940491    0.940491    0.939953    0.000000    0.000000    0.000000
   58.659420    0.940170    0.940170    0.939977    0.000000    0.000000    0.000000
   59.183165    0.942367    0.942367    0.941609    0.000000    0.000000    0.000000
   59.706910    0.943972    0.943972    0.943336    0.000000    0.000000    0.000000
   60.230655    0.945461    0.945461    0.944875    0.000000    0.000000    0.000000
   60.754400    0.946760    0.946760    0.946198    0.000000    0.000000    0.000000
   61.278144    0.948053    0.948053    0.947490    0.000000    0.000000    0.000000
   61.801889    0.949254    0.949254    0.948678    0.000000    0.000000    0.000000
   62.325634    0.950423    0.950423    0.949809    0.000000    0.000000    0.000000
   62.849379    0.951387    0.951387    0.950892    0.000000    0.000000    0.000000
   63.373124    0.952368    0.952368    0.951935    0.000000    0.000000    0.000000
   63.896868    0.953338    0.953338    0.952878    0.000000    0.000000    0.000000
   64.420613    0.954291    0.954291    0.953781    0.000000    0.000000    0.000000
   64.944358    0.955215    0.955215    0.954707    0.000000    0.000000    0.000000
   65.468103    0.956105    0.956105    0.955591    0.000000    0.000000    0.000000
   65.991848    0.956974    0.956974    0.956454    0.000000    0.000000    0.000000
   66.515593    0.957841    0.957841    0.957289    0.000000    0.000000    0.000000
   67.039337    0.958613    0.958613    0.958107    0.000000    0.000000    0.000000
   67.563082    0.959296    0.959296    0.958925    0.000000    0.000000    0.000000
   68.086827    0.960048    0.960048    0.959784    0.000000    0.000000    0.000000
   68.610572    0.960886    0.960886    0.960450    0.000000    0.000000    0.000000
   69.134317    0.961279    0.961279    0.961036    0.000000    0.000000    0.000000
   69.658062    0.962074    0.962074    0.961665    0.000000    0.000000    0.000000
   70.181806    0.962779    0.962779    0.962142    0.000000    0.000000    0.000000
   70.705551    0.963151    0.963151    0.962903    0.000000    0.000000    0.000000
   71.229296    0.963908    0.963908    0.963355    0.000000    0.000000    0.000000
   71.753041    0.964405    0.964405    0.964175    0.000000    0.000000    0.000000
   72.276786    0.965247    0.965247    0.964542    0.000000    0.000000    0.000000
   72.800530    0.965669    0.965669    0.965111    0.000000    0.000000    0.000000
   73.324275    0.966125    0.966125    0.965836    0.000000    0.000000    0.000000
   73.848020    0.966424    0.966424    0.966356    0.000000    0.000000    0.000000
   74.371765    0.967008    0.967008    0.966942    0.000000    0.000000    0.000000
   74.895510    0.967457    0.967457    0.967400    0.000000    0.000000    0.000000
   75.419255    0.968041    0.968041    0.967746    0.000000    0.000000    0.000000
   75.942999    0.968634    0.968634    0.968314    0.000000    0.000000    0.000000
   76.466744    0.969129    0.969129    0.968657    0.000000    0.000000    0.000000
   76.990489    0.969338    0.969338    0.968938    0.000000    0.000000    0.000000
   77.514234    0.969870    0.969870    0.969491    0.000000    0.000000    0.000000
   78.037979    0.970368    0.970368    0.969936    0.000000    0.000000    0.000000
   78.561724    0.970626    0.970626    0.970392    0.000000    0.000000    0.000000
   79.085468    0.971199    0.971199    0.970762    0.000000    0.000000    0.000000
   79.609213    0.971561    0.971561    0.971276    0.000000    0.000000    0.000000
   80.132958    0.971947    0.971947    0.971710    0.000000    0.000000    0.000000
   80.656703    0.972409    0.972409    0.972059    0.000000    0.000000    0.000000
   81.180448    0.972710    0.972710    0.972471    0.000000    0.000000    0.000000
   81.704193    0.973072    0.973072    0.972871    0.000000    0.000000    0.000000
   82.227937    0.973480    0.973480    0.973305    0.000000    0.000000    0.000000
   82.751682    0.973857    0.973857    0.973535    0.000000    0.000000    0.000000
   83.275427    0.974162    0.974162    0.973912    0.000000    0.000000    0.000000
   83.799172    0.974538    0.974538    0.974212    0.000000    0.000000    0.000000
   84.322917    0.974838    0.974838    0.974528    0.000000    0.000000    0.000000
   84.846661    0.975161    0.975161    0.974911    0.000000    0.000000    0.000000
   85.370406    0.975495    0.975495    0.975224    0.000000    0.000000    0.000000
   85.894151    0.975844    0.975844    0.975569    0.000000    0.000000    0.000000
   86.417896    0.976147    0.976147    0.975893    0.000000    0.000000    0.000000
   86.941641    0.976475    0.976475    0.976215    0.000000    0.000000    0.000000
   87.465386    0.976780    0.976780    0.976525    0.000000    0.000000    0.000000
   87.989130    0.977082    0.977082    0.976829    0.000000    0.000000    0.000000
   88.512875    0.977375    0.977375    0.977125    0.000000    0.000000    0.000000
   89.036620    0.977662    0.977662    0.977415    0.000000    0.000000    0.000000
   89.560365    0.977943    0.977943    0.977698    0.000000    0.000000    0.000000
   90.084110    0.978218    0.978218    0.977976    0.000000    0.000000    0.000000
   90.607855    0.978487    0.978487    0.978248    0.000000    0.000000    0.000000
   91.131599    0.978751    0.978751    0.978515    0.000000    0.000000    0.000000
   91.655344    0.979009    0.979009    0.978776    0.000000    0.000000    0.000000
   92.179089    0.979263    0.979263    0.979032    0.000000    0.000000    0.000000
   92.702834    0.979512    0.979512    0.979284    0.000000    0.000000    0.000000
   93.226579    0.979756    0.979756    0.979530    0.000000    0.000000    0.000000
   93.750323    0.979996    0.979996    0.979772    0.000000    0.000000    0.000000
   94.274068    0.980231    0.980231    0.980010    0.000000    0.000000    0.000000
   94.797813    0.980461    0.980461    0.980243    0.000000    0.000000    0.000000
   95.321558    0.980688    0.980688    0.980472    0.000000    0.000000    0.000000
   95.845303    0.980911    0.980911    0.980697    0.000000    0.000000    0.000000
   96.369048    0.981129    0.981129    0.980918    0.000000    0.000000    0.000000
   96.892792    0.981344    0.981344    0.981135    0.000000    0.000000    0.000000
   97.416537    0.981555    0.981555    0.981348    0.000000    0.000000    0.000000
   97.940282    0.981762    0.981762    0.981557    0.000000    0.000000    0.000000
   98.464027    0.981966    0.981966    0.981763    0.000000    0.000000    0.000000
   98.987772    0.982166    0.982166    0.981965    0.000000    0.000000    0.000000
   99.511517    0.982362    0.982362    0.982164    0.000000    0.000000    0.000000
  100.035261    0.982556    0.982556    0.982359    0.000000    0.000000    0.000000
  100.559006    0.982746    0.982746    0.982552    0.000000    0.000000    0.000000
  101.082751    0.982933    0.982933    0.982740    0.000000    0.000000    0.000000
  101.606496    0.983117    0.983117    0.982926    0.000000    0.000000    0.000000
  102.130241    0.983298    0.983298    0.983109    0.000000    0.000000    0.000000
  102.653985    0.983475    0.983475    0.983289    0.000000    0.000000    0.000000
  103.177730    0.983650    0.983650    0.983466    0.000000    0.000000    0.000000
  103.701475    0.983822    0.983822    0.983640    0.000000    0.000000    0.000000
  104.225220    0.983992    0.983992    0.983811    0.000000    0.000000    0.000000
 
 The outermost node in the dielectric function lies at epsilon=  15.2


--------------------------------------------------------------------------------------------------------


    OPTICS:  cpu time    2.1437: real time    2.5817
    4ORBIT:  cpu time    0.0000: real time    0.0000
 


 total charge     
 
# of ion     s       p       d       tot
----------------------------------------
  1        2.305   6.239   4.032  12.577
  2        1.362   2.346   0.000   3.708
  3        1.362   2.347   0.000   3.708
------------------------------------------------
tot        5.029  10.932   4.032  19.993
 

 total amount of memory used by VASP on root node    80313. kBytes
========================================================================

   base      :      30000. kBytes
   nonl-proj :      22786. kBytes
   fftplans  :      12106. kBytes
   grid      :       7773. kBytes
   one-center:         46. kBytes
   wavefun   :       7602. kBytes
 
  
  
 General timing and accounting informations for this job:
 ========================================================
  
                  Total CPU time used (sec):       21.296
                            User time (sec):       20.379
                          System time (sec):        0.917
                         Elapsed time (sec):       24.194
  
                   Maximum memory used (kb):      167372.
                   Average memory used (kb):           0.
  
                          Minor page faults:        75592
                          Major page faults:            0
                 Voluntary context switches:          286
