<?xml version="1.0" encoding="ISO-8859-1"?>
<modeling>
 <generator>
  <i name="program" type="string">vasp </i>
  <i name="version" type="string">5.4.1  </i>
  <i name="subversion" type="string">24Jun15 (build May 10 2016 21:48:03) complex                          parallel </i>
  <i name="platform" type="string">IFC91_ompi </i>
  <i name="date" type="string">2016 08 12 </i>
  <i name="time" type="string">03:32:15 </i>
 </generator>
 <incar>
  <i type="string" name="PREC">accurate</i>
  <i type="logical" name="ADDGRID"> T  </i>
  <i type="int" name="IBRION">    -1</i>
  <i name="EDIFF">      0.00001000</i>
  <i type="int" name="NSW">     0</i>
  <i name="ENCUT">    500.00000000</i>
  <i type="int" name="NBANDS">    48</i>
  <i type="int" name="NEDOS">  2000</i>
  <i type="logical" name="LREAL"> F  </i>
  <i type="int" name="ISMEAR">     0</i>
  <i name="SIGMA">      0.01000000</i>
  <i type="logical" name="LWAVE"> F  </i>
  <i type="logical" name="LCHARG"> F  </i>
  <i type="logical" name="LORBIT"> F  </i>
  <i type="logical" name="LOPTICS"> T  </i>
  <i type="logical" name="LASPH"> T  </i>
  <i type="int" name="NOMEGA">   400</i>
  <v type="int" name="KPOINT_BSE">    -1     0     0     0</v>
  <i type="logical" name="LASPH"> T  </i>
 </incar>
 <kpoints>
  <generation param="Gamma">
   <v type="int" name="divisions">      12       12        1 </v>
   <v name="usershift">      0.00000000       0.00000000       0.00000000 </v>
   <v name="genvec1">      0.08333333       0.00000000       0.00000000 </v>
   <v name="genvec2">      0.00000000       0.08333333       0.00000000 </v>
   <v name="genvec3">      0.00000000       0.00000000       1.00000000 </v>
   <v name="shift">      0.00000000       0.00000000       0.00000000 </v>
  </generation>
  <varray name="kpointlist" >
   <v>       0.00000000       0.00000000       0.00000000 </v>
   <v>       0.08333333       0.00000000       0.00000000 </v>
   <v>       0.16666667       0.00000000       0.00000000 </v>
   <v>       0.25000000       0.00000000       0.00000000 </v>
   <v>       0.33333333       0.00000000       0.00000000 </v>
   <v>       0.41666667       0.00000000       0.00000000 </v>
   <v>       0.50000000       0.00000000       0.00000000 </v>
   <v>       0.08333333       0.08333333       0.00000000 </v>
   <v>       0.16666667       0.08333333       0.00000000 </v>
   <v>       0.25000000       0.08333333       0.00000000 </v>
   <v>       0.33333333       0.08333333       0.00000000 </v>
   <v>       0.41666667       0.08333333       0.00000000 </v>
   <v>       0.16666667       0.16666667       0.00000000 </v>
   <v>       0.25000000       0.16666667       0.00000000 </v>
   <v>       0.33333333       0.16666667       0.00000000 </v>
   <v>       0.41666667       0.16666667       0.00000000 </v>
   <v>       0.25000000       0.25000000       0.00000000 </v>
   <v>       0.33333333       0.25000000       0.00000000 </v>
   <v>       0.33333333       0.33333333       0.00000000 </v>
  </varray>
  <varray name="weights" >
   <v>       0.00694444 </v>
   <v>       0.04166667 </v>
   <v>       0.04166667 </v>
   <v>       0.04166667 </v>
   <v>       0.04166667 </v>
   <v>       0.04166667 </v>
   <v>       0.02083333 </v>
   <v>       0.04166667 </v>
   <v>       0.08333333 </v>
   <v>       0.08333333 </v>
   <v>       0.08333333 </v>
   <v>       0.08333333 </v>
   <v>       0.04166667 </v>
   <v>       0.08333333 </v>
   <v>       0.08333333 </v>
   <v>       0.04166667 </v>
   <v>       0.04166667 </v>
   <v>       0.08333333 </v>
   <v>       0.01388889 </v>
  </varray>
 </kpoints>
 <parameters>
  <separator name="general" >
   <i type="string" name="SYSTEM">unknown system</i>
   <i type="logical" name="LCOMPAT"> F  </i>
  </separator>
  <separator name="electronic" >
   <i type="string" name="PREC">accura</i>
   <i name="ENMAX">    500.00000000</i>
   <i name="ENAUG">    446.01400000</i>
   <i name="EDIFF">      0.00001000</i>
   <i type="int" name="IALGO">    38</i>
   <i type="int" name="IWAVPR">    10</i>
   <i type="int" name="NBANDS">    48</i>
   <i name="NELECT">     26.00000000</i>
   <i type="int" name="TURBO">     0</i>
   <i type="int" name="IRESTART">     0</i>
   <i type="int" name="NREBOOT">     0</i>
   <i type="int" name="NMIN">     0</i>
   <i name="EREF">      0.00000000</i>
   <separator name="electronic smearing" >
    <i type="int" name="ISMEAR">     0</i>
    <i name="SIGMA">      0.01000000</i>
    <i name="KSPACING">      0.50000000</i>
    <i type="logical" name="KGAMMA"> T  </i>
   </separator>
   <separator name="electronic projectors" >
    <i type="logical" name="LREAL"> F  </i>
    <v name="ROPT">      0.00000000      0.00000000</v>
    <i type="int" name="LMAXPAW">  -100</i>
    <i type="int" name="LMAXMIX">     2</i>
    <i type="logical" name="NLSPLINE"> F  </i>
   </separator>
   <separator name="electronic startup" >
    <i type="int" name="ISTART">     1</i>
    <i type="int" name="ICHARG">     0</i>
    <i type="int" name="INIWAV">     1</i>
   </separator>
   <separator name="electronic spin" >
    <i type="int" name="ISPIN">     1</i>
    <i type="logical" name="LNONCOLLINEAR"> F  </i>
    <v name="MAGMOM">      1.00000000      1.00000000      1.00000000</v>
    <i name="NUPDOWN">     -1.00000000</i>
    <i type="logical" name="LSORBIT"> F  </i>
    <v name="SAXIS">      0.00000000      0.00000000      1.00000000</v>
    <i type="logical" name="LSPIRAL"> F  </i>
    <v name="QSPIRAL">      0.00000000      0.00000000      0.00000000</v>
    <i type="logical" name="LZEROZ"> F  </i>
   </separator>
   <separator name="electronic exchange-correlation" >
    <i type="logical" name="LASPH"> T  </i>
    <i type="logical" name="LMETAGGA"> F  </i>
   </separator>
   <separator name="electronic convergence" >
    <i type="int" name="NELM">    60</i>
    <i type="int" name="NELMDL">     0</i>
    <i type="int" name="NELMIN">     2</i>
    <i name="ENINI">    500.00000000</i>
    <separator name="electronic convergence detail" >
     <i type="logical" name="LDIAG"> T  </i>
     <i type="logical" name="LSUBROT"> F  </i>
     <i name="WEIMIN">      0.00000000</i>
     <i name="EBREAK">      0.00000005</i>
     <i name="DEPER">      0.30000000</i>
     <i type="int" name="NRMM">     4</i>
     <i name="TIME">      0.40000000</i>
    </separator>
   </separator>
   <separator name="electronic mixer" >
    <i name="AMIX">      0.40000000</i>
    <i name="BMIX">      1.00000000</i>
    <i name="AMIN">      0.10000000</i>
    <i name="AMIX_MAG">      1.60000000</i>
    <i name="BMIX_MAG">      1.00000000</i>
    <separator name="electronic mixer details" >
     <i type="int" name="IMIX">     4</i>
     <i type="logical" name="MIXFIRST"> F  </i>
     <i type="int" name="MAXMIX">   -45</i>
     <i name="WC">    100.00000000</i>
     <i type="int" name="INIMIX">     1</i>
     <i type="int" name="MIXPRE">     1</i>
     <i type="int" name="MREMOVE">     5</i>
    </separator>
   </separator>
   <separator name="electronic dipolcorrection" >
    <i type="logical" name="LDIPOL"> F  </i>
    <i type="logical" name="LMONO"> F  </i>
    <i type="int" name="IDIPOL">     0</i>
    <i name="EPSILON">      1.00000000</i>
    <v name="DIPOL">   -100.00000000   -100.00000000   -100.00000000</v>
    <i name="EFIELD">      0.00000000</i>
   </separator>
  </separator>
  <separator name="grids" >
   <i type="int" name="NGX">    24</i>
   <i type="int" name="NGY">    24</i>
   <i type="int" name="NGZ">   140</i>
   <i type="int" name="NGXF">    48</i>
   <i type="int" name="NGYF">    48</i>
   <i type="int" name="NGZF">   280</i>
   <i type="logical" name="ADDGRID"> T  </i>
  </separator>
  <separator name="ionic" >
   <i type="int" name="NSW">     0</i>
   <i type="int" name="IBRION">    -1</i>
   <i type="int" name="ISIF">     2</i>
   <i name="PSTRESS">      0.00000000</i>
   <i name="EDIFFG">      0.00010000</i>
   <i type="int" name="NFREE">     0</i>
   <i name="POTIM">      0.50000000</i>
   <i name="SMASS">     -3.00000000</i>
   <i name="SCALEE">      1.00000000</i>
  </separator>
  <separator name="ionic md" >
   <i name="TEBEG">      0.00010000</i>
   <i name="TEEND">      0.00010000</i>
   <i type="int" name="NBLOCK">     1</i>
   <i type="int" name="KBLOCK">     1</i>
   <i type="int" name="NPACO">   256</i>
   <i name="APACO">     16.00000000</i>
  </separator>
  <separator name="symmetry" >
   <i type="int" name="ISYM">     2</i>
   <i name="SYMPREC">      0.00001000</i>
  </separator>
  <separator name="dos" >
   <i type="logical" name="LORBIT"> F  </i>
   <v name="RWIGS">     -1.00000000     -1.00000000</v>
   <i type="int" name="NEDOS">  2000</i>
   <i name="EMIN">     10.00000000</i>
   <i name="EMAX">    -10.00000000</i>
   <i name="EFERMI">      0.00000000</i>
  </separator>
  <separator name="writing" >
   <i type="int" name="NWRITE">     2</i>
   <i type="logical" name="LWAVE"> F  </i>
   <i type="logical" name="LCHARG"> F  </i>
   <i type="logical" name="LPARD"> F  </i>
   <i type="logical" name="LVTOT"> F  </i>
   <i type="logical" name="LVHAR"> F  </i>
   <i type="logical" name="LELF"> F  </i>
   <i type="logical" name="LOPTICS"> T  </i>
   <v name="STM">      0.00000000      0.00000000      0.00000000      0.00000000      0.00000000      0.00000000      0.00000000</v>
  </separator>
  <separator name="performance" >
   <i type="int" name="NPAR">     8</i>
   <i type="int" name="NSIM">     4</i>
   <i type="int" name="NBLK">    -1</i>
   <i type="logical" name="LPLANE"> T  </i>
   <i type="logical" name="LSCALAPACK"> T  </i>
   <i type="logical" name="LSCAAWARE"> F  </i>
   <i type="logical" name="LSCALU"> F  </i>
   <i type="logical" name="LASYNC"> F  </i>
   <i type="logical" name="LORBITALREAL"> F  </i>
  </separator>
  <separator name="miscellaneous" >
   <i type="int" name="IDIOT">     3</i>
   <i type="logical" name="LMUSIC"> F  </i>
   <v name="POMASS">     95.94000000     32.06600000</v>
   <v name="DARWINR">      0.00000000      0.00000000</v>
   <v name="DARWINV">      1.00000000      1.00000000</v>
   <i type="logical" name="LCORR"> T  </i>
  </separator>
  <i type="logical" name="GGA_COMPAT"> T  </i>
  <i type="logical" name="LBERRY"> F  </i>
  <i type="int" name="ICORELEVEL">     0</i>
  <i type="logical" name="LDAU"> F  </i>
  <i type="int" name="I_CONSTRAINED_M">     0</i>
  <separator name="electronic exchange-correlation" >
   <i type="string" name="GGA">--</i>
   <i type="int" name="VOSKOWN">     0</i>
   <i type="logical" name="LHFCALC"> F  </i>
   <i type="string" name="PRECFOCK"></i>
   <i type="logical" name="LSYMGRAD"> F  </i>
   <i type="logical" name="LHFONE"> F  </i>
   <i type="logical" name="LRHFCALC"> F  </i>
   <i type="logical" name="LTHOMAS"> F  </i>
   <i type="logical" name="LMODELHF"> F  </i>
   <i name="ENCUT4O">     -1.00000000</i>
   <i type="int" name="EXXOEP">     0</i>
   <i type="int" name="FOURORBIT">     0</i>
   <i name="AEXX">      0.00000000</i>
   <i name="HFALPHA">      0.00000000</i>
   <i name="MCALPHA">      0.00000000</i>
   <i name="ALDAX">      1.00000000</i>
   <i name="AGGAX">      1.00000000</i>
   <i name="ALDAC">      1.00000000</i>
   <i name="AGGAC">      1.00000000</i>
   <i type="int" name="NKREDX">     1</i>
   <i type="int" name="NKREDY">     1</i>
   <i type="int" name="NKREDZ">     1</i>
   <i type="logical" name="SHIFTRED"> F  </i>
   <i type="logical" name="ODDONLY"> F  </i>
   <i type="logical" name="EVENONLY"> F  </i>
   <i type="int" name="LMAXFOCK">     0</i>
   <i type="int" name="NMAXFOCKAE">     0</i>
   <i type="logical" name="LFOCKAEDFT"> F  </i>
   <i name="HFSCREEN">      0.00000000</i>
   <i name="HFSCREENC">      0.00000000</i>
   <i type="int" name="NBANDSGWLOW">     0</i>
  </separator>
  <separator name="vdW DFT" >
   <i type="logical" name="LUSE_VDW"> F  </i>
   <i name="Zab_VDW">     -0.84910000</i>
   <i name="PARAM1">      0.12340000</i>
   <i name="PARAM2">      1.00000000</i>
   <i name="PARAM3">      0.00000000</i>
  </separator>
  <separator name="model GW" >
   <i type="int" name="MODEL_GW">     0</i>
   <i name="MODEL_EPS0">     32.28224282</i>
   <i name="MODEL_ALPHA">      1.00000000</i>
  </separator>
  <separator name="linear response parameters" >
   <i type="logical" name="LEPSILON"> F  </i>
   <i type="logical" name="LRPA"> F  </i>
   <i type="logical" name="LNABLA"> F  </i>
   <i type="logical" name="LVEL"> F  </i>
   <i type="int" name="KINTER">     0</i>
   <i name="CSHIFT">      0.10000000</i>
   <i name="OMEGAMAX">     -1.00000000</i>
   <i name="DEG_THRESHOLD">      0.00200000</i>
  </separator>
  <separator name="orbital magnetization" >
   <i type="logical" name="NUCIND"> F  </i>
   <v name="MAGPOS">      0.00000000      0.00000000      0.00000000</v>
   <i type="logical" name="LNICSALL"> T  </i>
   <i type="logical" name="ORBITALMAG"> F  </i>
   <i type="logical" name="LMAGBLOCH"> F  </i>
   <i type="logical" name="LCHIMAG"> F  </i>
   <i type="logical" name="LGAUGE"> T  </i>
   <i type="int" name="MAGATOM">     0</i>
   <v name="MAGDIPOL">      0.00000000      0.00000000      0.00000000</v>
   <v name="AVECCONST">      0.00000000      0.00000000      0.00000000</v>
  </separator>
  <separator name="response functions" >
   <i type="logical" name="LADDER"> F  </i>
   <i type="logical" name="LFXC"> F  </i>
   <i type="logical" name="LHARTREE"> T  </i>
   <i type="int" name="IBSE">     0</i>
   <v type="int" name="KPOINT">    -1     0     0     0</v>
   <i type="logical" name="LTCTE"> F  </i>
   <i type="logical" name="LTETE"> F  </i>
   <i type="logical" name="LTRIPLET"> F  </i>
   <i type="logical" name="LFXCEPS"> F  </i>
   <i type="logical" name="LFXHEG"> F  </i>
   <i type="int" name="NATURALO">     0</i>
   <i type="logical" name="L2ORDER"> F  </i>
   <i type="logical" name="LUSEW"> F  </i>
   <i name="ENCUTGW">     -2.00000000</i>
   <i name="ENCUTGWSOFT">     -2.00000000</i>
   <i name="ENCUTLF">     -1.00000000</i>
   <i type="int" name="LMAXMP2">    -1</i>
   <i name="SCISSOR">      0.00000000</i>
   <i type="int" name="NOMEGA">   400</i>
   <i type="int" name="NOMEGAR">     0</i>
   <i type="int" name="NBANDSGW">    -1</i>
   <i type="int" name="NBANDSO">    -1</i>
   <i type="int" name="NBANDSV">    -1</i>
   <i type="int" name="NELM">     1</i>
   <i type="int" name="NELMHF">     1</i>
   <i type="int" name="DIM">     3</i>
   <i type="int" name="ANTIRES">     0</i>
   <i name="OMEGAMAX">    -30.00000000</i>
   <i name="OMEGAMIN">    -30.00000000</i>
   <i name="OMEGATL">   -200.00000000</i>
   <i type="int" name="OMEGAGRID">     0</i>
   <i name="CSHIFT">     -0.10000000</i>
   <i type="logical" name="SELFENERGY"> F  </i>
   <i type="logical" name="LSPECTRAL"> T  </i>
   <i type="logical" name="LSPECTRALGW"> F  </i>
   <i type="logical" name="LSINGLES"> F  </i>
   <i type="logical" name="LFERMIGW"> F  </i>
   <i type="logical" name="ODDONLYGW"> F  </i>
   <i type="logical" name="EVENONLYGW"> F  </i>
   <i type="int" name="NKREDLFX">     1</i>
   <i type="int" name="NKREDLFY">     1</i>
   <i type="int" name="NKREDLFZ">     1</i>
   <i type="int" name="MAXMEM">  1800</i>
   <i type="int" name="TELESCOPE">     0</i>
   <i type="int" name="TAUPAR">     1</i>
   <i type="int" name="OMEGAPAR">    -1</i>
   <i name="LAMBDA">      1.00000000</i>
  </separator>
  <separator name="External order field" >
   <i name="OFIELD_KAPPA">      0.00000000</i>
   <v name="OFIELD_K">      0.00000000      0.00000000      0.00000000</v>
   <i name="OFIELD_Q6_NEAR">      0.00000000</i>
   <i name="OFIELD_Q6_FAR">      0.00000000</i>
   <i name="OFIELD_A">      0.00000000</i>
  </separator>
 </parameters>
 <atominfo>
  <atoms>       3 </atoms>
  <types>       2 </types>
  <array name="atoms" >
   <dimension dim="1">ion</dimension>
   <field type="string">element</field>
   <field type="int">atomtype</field>
   <set>
    <rc><c>Mo</c><c>   1</c></rc>
    <rc><c>S </c><c>   2</c></rc>
    <rc><c>S </c><c>   2</c></rc>
   </set>
  </array>
  <array name="atomtypes" >
   <dimension dim="1">type</dimension>
   <field type="int">atomspertype</field>
   <field type="string">element</field>
   <field>mass</field>
   <field>valence</field>
   <field type="string">pseudopotential</field>
   <set>
    <rc><c>   1</c><c>Mo</c><c>     95.94000000</c><c>     14.00000000</c><c>  PAW Mo_sv 29Jan2005                   </c></rc>
    <rc><c>   2</c><c>S </c><c>     32.06600000</c><c>      6.00000000</c><c>  PAW S 27Mar2009                       </c></rc>
   </set>
  </array>
 </atominfo>
 <structure name="initialpos" >
  <crystal>
   <varray name="basis" >
    <v>       3.12309194       0.00000000       0.00000000 </v>
    <v>      -1.56154597       2.70467696       0.00000000 </v>
    <v>       0.00000000       0.00000000      19.10880527 </v>
   </varray>
   <i name="volume">    161.41121412 </i>
   <varray name="rec_basis" >
    <v>       0.32019551       0.18486496       0.00000000 </v>
    <v>       0.00000000       0.36972992       0.00000000 </v>
    <v>       0.00000000       0.00000000       0.05233190 </v>
   </varray>
  </crystal>
  <varray name="positions" >
   <v>       0.33333334       0.66666669       0.08134579 </v>
   <v>       0.66666663       0.33333331       0.16259015 </v>
   <v>       0.66666663       0.33333331       0.00009952 </v>
  </varray>
 </structure>
 <calculation>
  <scstep>
   <time name="dav">    4.68    4.69</time>
   <time name="total">    5.20    5.42</time>
   <energy>
    <i name="alphaZ">     28.33486264 </i>
    <i name="ewald">   5299.37653910 </i>
    <i name="hartreedc">  -7416.29967049 </i>
    <i name="XCdc">     91.97930689 </i>
    <i name="pawpsdc">   3062.55549118 </i>
    <i name="pawaedc">  -3040.79865797 </i>
    <i name="eentropy">      0.00000000 </i>
    <i name="bandstr">   -469.87046419 </i>
    <i name="atom">   2420.35613853 </i>
    <i name="e_fr_energy">    -24.36645431 </i>
    <i name="e_wo_entrp">    -24.36645431 </i>
    <i name="e_0_energy">    -24.36645431 </i>
   </energy>
  </scstep>
  <scstep>
   <time name="dav">    4.98    4.99</time>
   <time name="total">    5.20    5.37</time>
   <energy>
    <i name="alphaZ">     28.33486264 </i>
    <i name="ewald">   5299.37653910 </i>
    <i name="hartreedc">  -7416.29728624 </i>
    <i name="XCdc">     91.97928604 </i>
    <i name="pawpsdc">   3062.54209892 </i>
    <i name="pawaedc">  -3040.78531606 </i>
    <i name="eentropy">      0.00000000 </i>
    <i name="bandstr">   -469.87277725 </i>
    <i name="atom">   2420.35613853 </i>
    <i name="e_fr_energy">    -24.36645432 </i>
    <i name="e_wo_entrp">    -24.36645432 </i>
    <i name="e_0_energy">    -24.36645432 </i>
   </energy>
  </scstep>
  <structure>
   <crystal>
    <varray name="basis" >
     <v>       3.12309194       0.00000000       0.00000000 </v>
     <v>      -1.56154597       2.70467696       0.00000000 </v>
     <v>       0.00000000       0.00000000      19.10880527 </v>
    </varray>
    <i name="volume">    161.41121412 </i>
    <varray name="rec_basis" >
     <v>       0.32019551       0.18486496       0.00000000 </v>
     <v>       0.00000000       0.36972992       0.00000000 </v>
     <v>       0.00000000       0.00000000       0.05233190 </v>
    </varray>
   </crystal>
   <varray name="positions" >
    <v>       0.33333334       0.66666669       0.08134579 </v>
    <v>       0.66666663       0.33333331       0.16259015 </v>
    <v>       0.66666663       0.33333331       0.00009952 </v>
   </varray>
  </structure>
  <varray name="forces" >
   <v>       0.00000000       0.00000000       0.00000000 </v>
   <v>       0.00000000       0.00000000       0.00039729 </v>
   <v>       0.00000000       0.00000000      -0.00039729 </v>
  </varray>
  <varray name="stress" >
   <v>      -0.67284601       0.00000000       0.00000000 </v>
   <v>       0.00000000      -0.67284601       0.00000000 </v>
   <v>       0.00000000       0.00000000      -0.25304454 </v>
  </varray>
  <energy>
   <i name="e_fr_energy">    -24.36645432 </i>
   <i name="e_wo_entrp">    -24.36645432 </i>
   <i name="e_0_energy">      0.00000000 </i>
  </energy>
  <time name="totalsc">   14.57   15.71</time>
  <eigenvalues>
   <array>
    <dimension dim="1">band</dimension>
    <dimension dim="2">kpoint</dimension>
    <dimension dim="3">spin</dimension>
    <field>eigene</field>
    <field>occ</field>
    <set>
     <set comment="spin 1">
      <set comment="kpoint 1">
       <r>  -62.3145    1.0000 </r>
       <r>  -36.7088    1.0000 </r>
       <r>  -36.4160    1.0000 </r>
       <r>  -36.4160    1.0000 </r>
       <r>  -16.1349    1.0000 </r>
       <r>  -14.7397    1.0000 </r>
       <r>   -7.7298    1.0000 </r>
       <r>   -4.5421    1.0000 </r>
       <r>   -4.5421    1.0000 </r>
       <r>   -3.7836    1.0000 </r>
       <r>   -3.3622    1.0000 </r>
       <r>   -3.3622    1.0000 </r>
       <r>   -2.0058    1.0000 </r>
       <r>    1.0474    0.0000 </r>
       <r>    1.0474    0.0000 </r>
       <r>    1.3368    0.0000 </r>
       <r>    1.3368    0.0000 </r>
       <r>    3.6919    0.0000 </r>
       <r>    3.9120    0.0000 </r>
       <r>    4.5135    0.0000 </r>
       <r>    4.8813    0.0000 </r>
       <r>    5.9263    0.0000 </r>
       <r>    7.1179    0.0000 </r>
       <r>    7.3732    0.0000 </r>
       <r>    9.0516    0.0000 </r>
       <r>    9.6586    0.0000 </r>
       <r>    9.9811    0.0000 </r>
       <r>   10.2789    0.0000 </r>
       <r>   11.6173    0.0000 </r>
       <r>   11.7306    0.0000 </r>
       <r>   11.9186    0.0000 </r>
       <r>   13.2068    0.0000 </r>
       <r>   14.2902    0.0000 </r>
       <r>   14.9511    0.0000 </r>
       <r>   15.5141    0.0000 </r>
       <r>   15.6094    0.0000 </r>
       <r>   15.9410    0.0000 </r>
       <r>   16.0255    0.0000 </r>
       <r>   17.6452    0.0000 </r>
       <r>   18.4382    0.0000 </r>
       <r>   19.1465    0.0000 </r>
       <r>   19.6952    0.0000 </r>
       <r>   21.9971    0.0000 </r>
       <r>   22.2354    0.0000 </r>
       <r>   23.8794    0.0000 </r>
       <r>   24.3221    0.0000 </r>
       <r>   24.7296    0.0000 </r>
       <r>   24.9326    0.0000 </r>
      </set>
      <set comment="kpoint 2">
       <r>  -62.3112    1.0000 </r>
       <r>  -36.7024    1.0000 </r>
       <r>  -36.4482    1.0000 </r>
       <r>  -36.4233    1.0000 </r>
       <r>  -16.0221    1.0000 </r>
       <r>  -14.6947    1.0000 </r>
       <r>   -7.6040    1.0000 </r>
       <r>   -4.7818    1.0000 </r>
       <r>   -4.4236    1.0000 </r>
       <r>   -4.2637    1.0000 </r>
       <r>   -3.5384    1.0000 </r>
       <r>   -3.0461    1.0000 </r>
       <r>   -2.0431    1.0000 </r>
       <r>    0.8968    0.0000 </r>
       <r>    1.0074    0.0000 </r>
       <r>    1.2078    0.0000 </r>
       <r>    1.2417    0.0000 </r>
       <r>    3.8782    0.0000 </r>
       <r>    4.0516    0.0000 </r>
       <r>    4.8368    0.0000 </r>
       <r>    5.1962    0.0000 </r>
       <r>    6.0593    0.0000 </r>
       <r>    7.2441    0.0000 </r>
       <r>    7.8562    0.0000 </r>
       <r>    9.1493    0.0000 </r>
       <r>    9.4230    0.0000 </r>
       <r>   10.1909    0.0000 </r>
       <r>   10.7233    0.0000 </r>
       <r>   10.8718    0.0000 </r>
       <r>   11.7359    0.0000 </r>
       <r>   11.9666    0.0000 </r>
       <r>   13.3396    0.0000 </r>
       <r>   14.4930    0.0000 </r>
       <r>   14.6367    0.0000 </r>
       <r>   15.2230    0.0000 </r>
       <r>   15.6528    0.0000 </r>
       <r>   16.0262    0.0000 </r>
       <r>   16.2290    0.0000 </r>
       <r>   17.7747    0.0000 </r>
       <r>   18.6341    0.0000 </r>
       <r>   19.5770    0.0000 </r>
       <r>   20.9971    0.0000 </r>
       <r>   21.4082    0.0000 </r>
       <r>   21.7109    0.0000 </r>
       <r>   22.1099    0.0000 </r>
       <r>   22.9335    0.0000 </r>
       <r>   23.5780    0.0000 </r>
       <r>   23.9560    0.0000 </r>
      </set>
      <set comment="kpoint 3">
       <r>  -62.3020    1.0000 </r>
       <r>  -36.6850    1.0000 </r>
       <r>  -36.5351    1.0000 </r>
       <r>  -36.4430    1.0000 </r>
       <r>  -15.7011    1.0000 </r>
       <r>  -14.5669    1.0000 </r>
       <r>   -7.2915    1.0000 </r>
       <r>   -5.3213    1.0000 </r>
       <r>   -4.9418    1.0000 </r>
       <r>   -4.0928    1.0000 </r>
       <r>   -3.9509    1.0000 </r>
       <r>   -2.9526    1.0000 </r>
       <r>   -2.2493    1.0000 </r>
       <r>    0.4791    0.0000 </r>
       <r>    0.8255    0.0000 </r>
       <r>    0.9116    0.0000 </r>
       <r>    1.6825    0.0000 </r>
       <r>    4.3032    0.0000 </r>
       <r>    4.4550    0.0000 </r>
       <r>    5.3049    0.0000 </r>
       <r>    6.2664    0.0000 </r>
       <r>    6.4391    0.0000 </r>
       <r>    7.5873    0.0000 </r>
       <r>    8.2601    0.0000 </r>
       <r>    8.5875    0.0000 </r>
       <r>    9.4714    0.0000 </r>
       <r>   10.2820    0.0000 </r>
       <r>   10.9266    0.0000 </r>
       <r>   11.2765    0.0000 </r>
       <r>   11.4647    0.0000 </r>
       <r>   12.3024    0.0000 </r>
       <r>   13.0961    0.0000 </r>
       <r>   14.2941    0.0000 </r>
       <r>   14.3897    0.0000 </r>
       <r>   14.6300    0.0000 </r>
       <r>   15.9370    0.0000 </r>
       <r>   16.4497    0.0000 </r>
       <r>   18.1141    0.0000 </r>
       <r>   18.3176    0.0000 </r>
       <r>   18.5931    0.0000 </r>
       <r>   19.1953    0.0000 </r>
       <r>   19.5307    0.0000 </r>
       <r>   20.0996    0.0000 </r>
       <r>   20.4228    0.0000 </r>
       <r>   20.9672    0.0000 </r>
       <r>   21.5628    0.0000 </r>
       <r>   21.8795    0.0000 </r>
       <r>   22.5893    0.0000 </r>
      </set>
      <set comment="kpoint 4">
       <r>  -62.2895    1.0000 </r>
       <r>  -36.6612    1.0000 </r>
       <r>  -36.6521    1.0000 </r>
       <r>  -36.4698    1.0000 </r>
       <r>  -15.2242    1.0000 </r>
       <r>  -14.3787    1.0000 </r>
       <r>   -7.0842    1.0000 </r>
       <r>   -5.7521    1.0000 </r>
       <r>   -5.6278    1.0000 </r>
       <r>   -4.4105    1.0000 </r>
       <r>   -3.6287    1.0000 </r>
       <r>   -3.2196    1.0000 </r>
       <r>   -2.6864    1.0000 </r>
       <r>    0.3102    0.0000 </r>
       <r>    0.6245    0.0000 </r>
       <r>    1.1571    0.0000 </r>
       <r>    2.1300    0.0000 </r>
       <r>    4.8864    0.0000 </r>
       <r>    5.0647    0.0000 </r>
       <r>    5.9230    0.0000 </r>
       <r>    6.8390    0.0000 </r>
       <r>    6.8671    0.0000 </r>
       <r>    7.6108    0.0000 </r>
       <r>    7.8518    0.0000 </r>
       <r>    8.5195    0.0000 </r>
       <r>    9.9550    0.0000 </r>
       <r>   10.8098    0.0000 </r>
       <r>   11.0629    0.0000 </r>
       <r>   11.4088    0.0000 </r>
       <r>   12.1766    0.0000 </r>
       <r>   12.6927    0.0000 </r>
       <r>   12.9988    0.0000 </r>
       <r>   13.7541    0.0000 </r>
       <r>   14.1890    0.0000 </r>
       <r>   14.8859    0.0000 </r>
       <r>   15.7601    0.0000 </r>
       <r>   15.9037    0.0000 </r>
       <r>   16.6650    0.0000 </r>
       <r>   17.1358    0.0000 </r>
       <r>   17.5635    0.0000 </r>
       <r>   18.2110    0.0000 </r>
       <r>   19.3542    0.0000 </r>
       <r>   19.9171    0.0000 </r>
       <r>   20.5924    0.0000 </r>
       <r>   20.9637    0.0000 </r>
       <r>   21.5502    0.0000 </r>
       <r>   22.2340    0.0000 </r>
       <r>   22.9105    0.0000 </r>
      </set>
      <set comment="kpoint 5">
       <r>  -62.2769    1.0000 </r>
       <r>  -36.7670    1.0000 </r>
       <r>  -36.6372    1.0000 </r>
       <r>  -36.4964    1.0000 </r>
       <r>  -14.6848    1.0000 </r>
       <r>  -14.1711    1.0000 </r>
       <r>   -7.3465    1.0000 </r>
       <r>   -6.2572    1.0000 </r>
       <r>   -5.8434    1.0000 </r>
       <r>   -4.7955    1.0000 </r>
       <r>   -3.5471    1.0000 </r>
       <r>   -3.1664    1.0000 </r>
       <r>   -2.9423    1.0000 </r>
       <r>    0.4850    0.0000 </r>
       <r>    0.5128    0.0000 </r>
       <r>    1.6506    0.0000 </r>
       <r>    2.4465    0.0000 </r>
       <r>    5.4795    0.0000 </r>
       <r>    5.6479    0.0000 </r>
       <r>    6.1366    0.0000 </r>
       <r>    6.7086    0.0000 </r>
       <r>    6.7776    0.0000 </r>
       <r>    7.8457    0.0000 </r>
       <r>    8.0115    0.0000 </r>
       <r>    9.3720    0.0000 </r>
       <r>    9.9002    0.0000 </r>
       <r>   10.9524    0.0000 </r>
       <r>   11.3937    0.0000 </r>
       <r>   11.4421    0.0000 </r>
       <r>   11.9657    0.0000 </r>
       <r>   13.3542    0.0000 </r>
       <r>   13.4425    0.0000 </r>
       <r>   13.6690    0.0000 </r>
       <r>   14.1114    0.0000 </r>
       <r>   14.1390    0.0000 </r>
       <r>   14.6430    0.0000 </r>
       <r>   15.3292    0.0000 </r>
       <r>   15.9232    0.0000 </r>
       <r>   16.5553    0.0000 </r>
       <r>   17.0801    0.0000 </r>
       <r>   18.0027    0.0000 </r>
       <r>   18.5303    0.0000 </r>
       <r>   18.7812    0.0000 </r>
       <r>   19.6930    0.0000 </r>
       <r>   20.7571    0.0000 </r>
       <r>   21.4008    0.0000 </r>
       <r>   21.8481    0.0000 </r>
       <r>   22.3187    0.0000 </r>
      </set>
      <set comment="kpoint 6">
       <r>  -62.2677    1.0000 </r>
       <r>  -36.8499    1.0000 </r>
       <r>  -36.6196    1.0000 </r>
       <r>  -36.5158    1.0000 </r>
       <r>  -14.2302    1.0000 </r>
       <r>  -14.0034    1.0000 </r>
       <r>   -7.7351    1.0000 </r>
       <r>   -6.7168    1.0000 </r>
       <r>   -5.9930    1.0000 </r>
       <r>   -5.0448    1.0000 </r>
       <r>   -3.7557    1.0000 </r>
       <r>   -2.8506    1.0000 </r>
       <r>   -2.7299    1.0000 </r>
       <r>    0.5122    0.0000 </r>
       <r>    0.8603    0.0000 </r>
       <r>    1.9876    0.0000 </r>
       <r>    2.6135    0.0000 </r>
       <r>    4.8729    0.0000 </r>
       <r>    5.8645    0.0000 </r>
       <r>    6.1657    0.0000 </r>
       <r>    7.0436    0.0000 </r>
       <r>    7.7212    0.0000 </r>
       <r>    8.2990    0.0000 </r>
       <r>    8.4661    0.0000 </r>
       <r>    9.4515    0.0000 </r>
       <r>    9.7496    0.0000 </r>
       <r>   10.5570    0.0000 </r>
       <r>   10.9270    0.0000 </r>
       <r>   11.4085    0.0000 </r>
       <r>   11.5439    0.0000 </r>
       <r>   12.0981    0.0000 </r>
       <r>   12.5694    0.0000 </r>
       <r>   13.7450    0.0000 </r>
       <r>   13.8447    0.0000 </r>
       <r>   14.8561    0.0000 </r>
       <r>   15.1215    0.0000 </r>
       <r>   15.5248    0.0000 </r>
       <r>   16.2170    0.0000 </r>
       <r>   16.6439    0.0000 </r>
       <r>   17.7603    0.0000 </r>
       <r>   17.9244    0.0000 </r>
       <r>   18.5067    0.0000 </r>
       <r>   19.0692    0.0000 </r>
       <r>   19.8779    0.0000 </r>
       <r>   20.1698    0.0000 </r>
       <r>   20.4231    0.0000 </r>
       <r>   20.7824    0.0000 </r>
       <r>   21.2011    0.0000 </r>
      </set>
      <set comment="kpoint 7">
       <r>  -62.2643    1.0000 </r>
       <r>  -36.8800    1.0000 </r>
       <r>  -36.6131    1.0000 </r>
       <r>  -36.5229    1.0000 </r>
       <r>  -14.0457    1.0000 </r>
       <r>  -13.9381    1.0000 </r>
       <r>   -7.9033    1.0000 </r>
       <r>   -6.8871    1.0000 </r>
       <r>   -6.0965    1.0000 </r>
       <r>   -5.1306    1.0000 </r>
       <r>   -3.8226    1.0000 </r>
       <r>   -2.7453    1.0000 </r>
       <r>   -2.5375    1.0000 </r>
       <r>    0.5601    0.0000 </r>
       <r>    1.0658    0.0000 </r>
       <r>    2.0836    0.0000 </r>
       <r>    2.6631    0.0000 </r>
       <r>    4.3138    0.0000 </r>
       <r>    5.9977    0.0000 </r>
       <r>    6.4727    0.0000 </r>
       <r>    7.1652    0.0000 </r>
       <r>    7.8871    0.0000 </r>
       <r>    8.7054    0.0000 </r>
       <r>    9.1858    0.0000 </r>
       <r>    9.4911    0.0000 </r>
       <r>   10.0082    0.0000 </r>
       <r>   10.1045    0.0000 </r>
       <r>   10.1753    0.0000 </r>
       <r>   10.6848    0.0000 </r>
       <r>   10.8498    0.0000 </r>
       <r>   12.1626    0.0000 </r>
       <r>   12.4958    0.0000 </r>
       <r>   13.0254    0.0000 </r>
       <r>   13.7541    0.0000 </r>
       <r>   15.0677    0.0000 </r>
       <r>   15.3338    0.0000 </r>
       <r>   15.5639    0.0000 </r>
       <r>   16.0259    0.0000 </r>
       <r>   16.9726    0.0000 </r>
       <r>   17.5407    0.0000 </r>
       <r>   18.2561    0.0000 </r>
       <r>   18.5403    0.0000 </r>
       <r>   19.0024    0.0000 </r>
       <r>   19.3527    0.0000 </r>
       <r>   19.8924    0.0000 </r>
       <r>   20.0721    0.0000 </r>
       <r>   20.5229    0.0000 </r>
       <r>   21.1386    0.0000 </r>
      </set>
      <set comment="kpoint 8">
       <r>  -62.3049    1.0000 </r>
       <r>  -36.6905    1.0000 </r>
       <r>  -36.5061    1.0000 </r>
       <r>  -36.4384    1.0000 </r>
       <r>  -15.8051    1.0000 </r>
       <r>  -14.6081    1.0000 </r>
       <r>   -7.3805    1.0000 </r>
       <r>   -5.1648    1.0000 </r>
       <r>   -4.7159    1.0000 </r>
       <r>   -4.2070    1.0000 </r>
       <r>   -3.9483    1.0000 </r>
       <r>   -2.8355    1.0000 </r>
       <r>   -2.1644    1.0000 </r>
       <r>    0.6054    0.0000 </r>
       <r>    0.7349    0.0000 </r>
       <r>    0.9752    0.0000 </r>
       <r>    1.6013    0.0000 </r>
       <r>    4.1778    0.0000 </r>
       <r>    4.3245    0.0000 </r>
       <r>    5.1767    0.0000 </r>
       <r>    5.9816    0.0000 </r>
       <r>    6.3187    0.0000 </r>
       <r>    7.4732    0.0000 </r>
       <r>    8.4115    0.0000 </r>
       <r>    8.7116    0.0000 </r>
       <r>    9.3385    0.0000 </r>
       <r>   10.1720    0.0000 </r>
       <r>   10.6913    0.0000 </r>
       <r>   10.9671    0.0000 </r>
       <r>   11.6260    0.0000 </r>
       <r>   12.1221    0.0000 </r>
       <r>   13.4836    0.0000 </r>
       <r>   14.3833    0.0000 </r>
       <r>   14.5248    0.0000 </r>
       <r>   14.8307    0.0000 </r>
       <r>   15.7459    0.0000 </r>
       <r>   16.1063    0.0000 </r>
       <r>   17.5821    0.0000 </r>
       <r>   18.5490    0.0000 </r>
       <r>   19.2992    0.0000 </r>
       <r>   19.4754    0.0000 </r>
       <r>   19.8198    0.0000 </r>
       <r>   20.0060    0.0000 </r>
       <r>   20.5211    0.0000 </r>
       <r>   20.9407    0.0000 </r>
       <r>   21.1393    0.0000 </r>
       <r>   21.9640    0.0000 </r>
       <r>   22.5712    0.0000 </r>
      </set>
      <set comment="kpoint 9">
       <r>  -62.2941    1.0000 </r>
       <r>  -36.6699    1.0000 </r>
       <r>  -36.6038    1.0000 </r>
       <r>  -36.4658    1.0000 </r>
       <r>  -15.4051    1.0000 </r>
       <r>  -14.4489    1.0000 </r>
       <r>   -7.0870    1.0000 </r>
       <r>   -5.6332    1.0000 </r>
       <r>   -5.2822    1.0000 </r>
       <r>   -4.5366    1.0000 </r>
       <r>   -3.8632    1.0000 </r>
       <r>   -2.8591    1.0000 </r>
       <r>   -2.4968    1.0000 </r>
       <r>    0.2519    0.0000 </r>
       <r>    0.7232    0.0000 </r>
       <r>    0.8019    0.0000 </r>
       <r>    2.0926    0.0000 </r>
       <r>    4.6935    0.0000 </r>
       <r>    4.8422    0.0000 </r>
       <r>    5.7147    0.0000 </r>
       <r>    6.7894    0.0000 </r>
       <r>    7.0495    0.0000 </r>
       <r>    7.8622    0.0000 </r>
       <r>    8.1328    0.0000 </r>
       <r>    8.4367    0.0000 </r>
       <r>    9.7308    0.0000 </r>
       <r>   10.4566    0.0000 </r>
       <r>   10.7238    0.0000 </r>
       <r>   11.2531    0.0000 </r>
       <r>   11.7110    0.0000 </r>
       <r>   12.0715    0.0000 </r>
       <r>   13.1210    0.0000 </r>
       <r>   13.6466    0.0000 </r>
       <r>   14.5755    0.0000 </r>
       <r>   14.7418    0.0000 </r>
       <r>   16.0730    0.0000 </r>
       <r>   16.8940    0.0000 </r>
       <r>   17.1266    0.0000 </r>
       <r>   17.4041    0.0000 </r>
       <r>   18.4094    0.0000 </r>
       <r>   18.6883    0.0000 </r>
       <r>   19.0019    0.0000 </r>
       <r>   19.1730    0.0000 </r>
       <r>   19.5946    0.0000 </r>
       <r>   19.9727    0.0000 </r>
       <r>   20.3151    0.0000 </r>
       <r>   21.0194    0.0000 </r>
       <r>   21.8885    0.0000 </r>
      </set>
      <set comment="kpoint 10">
       <r>  -62.2815    1.0000 </r>
       <r>  -36.7147    1.0000 </r>
       <r>  -36.6460    1.0000 </r>
       <r>  -36.4976    1.0000 </r>
       <r>  -14.8928    1.0000 </r>
       <r>  -14.2473    1.0000 </r>
       <r>   -7.1293    1.0000 </r>
       <r>   -5.9535    1.0000 </r>
       <r>   -5.7835    1.0000 </r>
       <r>   -4.9289    1.0000 </r>
       <r>   -3.6175    1.0000 </r>
       <r>   -3.1760    1.0000 </r>
       <r>   -2.7831    1.0000 </r>
       <r>    0.1929    0.0000 </r>
       <r>    0.6773    0.0000 </r>
       <r>    1.2105    0.0000 </r>
       <r>    2.4629    0.0000 </r>
       <r>    5.3394    0.0000 </r>
       <r>    5.5062    0.0000 </r>
       <r>    6.4394    0.0000 </r>
       <r>    6.8021    0.0000 </r>
       <r>    7.0075    0.0000 </r>
       <r>    7.8046    0.0000 </r>
       <r>    7.9234    0.0000 </r>
       <r>    9.0669    0.0000 </r>
       <r>    9.9593    0.0000 </r>
       <r>   10.8729    0.0000 </r>
       <r>   11.1260    0.0000 </r>
       <r>   11.2674    0.0000 </r>
       <r>   11.7269    0.0000 </r>
       <r>   12.2687    0.0000 </r>
       <r>   13.9025    0.0000 </r>
       <r>   14.3129    0.0000 </r>
       <r>   14.5277    0.0000 </r>
       <r>   14.7061    0.0000 </r>
       <r>   15.0141    0.0000 </r>
       <r>   15.7094    0.0000 </r>
       <r>   15.9088    0.0000 </r>
       <r>   16.7365    0.0000 </r>
       <r>   17.3938    0.0000 </r>
       <r>   17.7913    0.0000 </r>
       <r>   18.2183    0.0000 </r>
       <r>   18.7110    0.0000 </r>
       <r>   19.6348    0.0000 </r>
       <r>   20.2132    0.0000 </r>
       <r>   20.6151    0.0000 </r>
       <r>   21.7621    0.0000 </r>
       <r>   23.0617    0.0000 </r>
      </set>
      <set comment="kpoint 11">
       <r>  -62.2706    1.0000 </r>
       <r>  -36.8092    1.0000 </r>
       <r>  -36.6252    1.0000 </r>
       <r>  -36.5249    1.0000 </r>
       <r>  -14.3858    1.0000 </r>
       <r>  -14.0532    1.0000 </r>
       <r>   -7.4854    1.0000 </r>
       <r>   -6.5677    1.0000 </r>
       <r>   -5.8469    1.0000 </r>
       <r>   -5.1000    1.0000 </r>
       <r>   -3.5389    1.0000 </r>
       <r>   -3.5053    1.0000 </r>
       <r>   -2.6335    1.0000 </r>
       <r>    0.3924    0.0000 </r>
       <r>    0.8152    0.0000 </r>
       <r>    1.7027    0.0000 </r>
       <r>    2.5829    0.0000 </r>
       <r>    5.4869    0.0000 </r>
       <r>    6.0407    0.0000 </r>
       <r>    6.1675    0.0000 </r>
       <r>    7.0518    0.0000 </r>
       <r>    7.3829    0.0000 </r>
       <r>    8.2566    0.0000 </r>
       <r>    8.3840    0.0000 </r>
       <r>    9.4922    0.0000 </r>
       <r>    9.7616    0.0000 </r>
       <r>   10.2729    0.0000 </r>
       <r>   11.2379    0.0000 </r>
       <r>   11.6011    0.0000 </r>
       <r>   12.1805    0.0000 </r>
       <r>   12.7240    0.0000 </r>
       <r>   12.8727    0.0000 </r>
       <r>   13.2677    0.0000 </r>
       <r>   13.7867    0.0000 </r>
       <r>   14.4891    0.0000 </r>
       <r>   14.8472    0.0000 </r>
       <r>   14.9988    0.0000 </r>
       <r>   15.8469    0.0000 </r>
       <r>   16.5840    0.0000 </r>
       <r>   16.7975    0.0000 </r>
       <r>   17.5147    0.0000 </r>
       <r>   17.8937    0.0000 </r>
       <r>   18.0986    0.0000 </r>
       <r>   18.5849    0.0000 </r>
       <r>   19.6981    0.0000 </r>
       <r>   20.1486    0.0000 </r>
       <r>   20.8603    0.0000 </r>
       <r>   22.1635    0.0000 </r>
      </set>
      <set comment="kpoint 12">
       <r>  -62.2643    1.0000 </r>
       <r>  -36.8632    1.0000 </r>
       <r>  -36.6131    1.0000 </r>
       <r>  -36.5407    1.0000 </r>
       <r>  -14.0538    1.0000 </r>
       <r>  -13.9307    1.0000 </r>
       <r>   -7.7581    1.0000 </r>
       <r>   -6.9277    1.0000 </r>
       <r>   -6.0227    1.0000 </r>
       <r>   -5.1488    1.0000 </r>
       <r>   -3.7669    1.0000 </r>
       <r>   -3.3450    1.0000 </r>
       <r>   -2.3752    1.0000 </r>
       <r>    0.5542    0.0000 </r>
       <r>    1.0679    0.0000 </r>
       <r>    2.1081    0.0000 </r>
       <r>    2.4410    0.0000 </r>
       <r>    4.5775    0.0000 </r>
       <r>    6.4435    0.0000 </r>
       <r>    6.6893    0.0000 </r>
       <r>    7.2455    0.0000 </r>
       <r>    8.0857    0.0000 </r>
       <r>    8.6665    0.0000 </r>
       <r>    8.6965    0.0000 </r>
       <r>    9.3927    0.0000 </r>
       <r>    9.9536    0.0000 </r>
       <r>   10.0200    0.0000 </r>
       <r>   10.5271    0.0000 </r>
       <r>   11.1386    0.0000 </r>
       <r>   11.3046    0.0000 </r>
       <r>   12.3215    0.0000 </r>
       <r>   12.5005    0.0000 </r>
       <r>   13.5479    0.0000 </r>
       <r>   13.7912    0.0000 </r>
       <r>   14.2516    0.0000 </r>
       <r>   15.0116    0.0000 </r>
       <r>   15.4906    0.0000 </r>
       <r>   15.8792    0.0000 </r>
       <r>   16.4736    0.0000 </r>
       <r>   16.8254    0.0000 </r>
       <r>   17.4664    0.0000 </r>
       <r>   17.6999    0.0000 </r>
       <r>   17.9562    0.0000 </r>
       <r>   18.6201    0.0000 </r>
       <r>   19.3042    0.0000 </r>
       <r>   20.1557    0.0000 </r>
       <r>   20.6909    0.0000 </r>
       <r>   21.4872    0.0000 </r>
      </set>
      <set comment="kpoint 13">
       <r>  -62.2832    1.0000 </r>
       <r>  -36.6879    1.0000 </r>
       <r>  -36.6492    1.0000 </r>
       <r>  -36.5058    1.0000 </r>
       <r>  -14.9666    1.0000 </r>
       <r>  -14.2734    1.0000 </r>
       <r>   -7.0174    1.0000 </r>
       <r>   -5.7449    1.0000 </r>
       <r>   -5.7087    1.0000 </r>
       <r>   -5.2020    1.0000 </r>
       <r>   -3.8542    1.0000 </r>
       <r>   -2.8837    1.0000 </r>
       <r>   -2.7160    1.0000 </r>
       <r>    0.0601    0.0000 </r>
       <r>    0.7380    0.0000 </r>
       <r>    0.8927    0.0000 </r>
       <r>    2.5310    0.0000 </r>
       <r>    5.2958    0.0000 </r>
       <r>    5.4460    0.0000 </r>
       <r>    6.3756    0.0000 </r>
       <r>    7.2803    0.0000 </r>
       <r>    7.2805    0.0000 </r>
       <r>    7.9155    0.0000 </r>
       <r>    8.2554    0.0000 </r>
       <r>    8.7675    0.0000 </r>
       <r>    9.7991    0.0000 </r>
       <r>   10.5692    0.0000 </r>
       <r>   10.9223    0.0000 </r>
       <r>   11.0732    0.0000 </r>
       <r>   11.5781    0.0000 </r>
       <r>   11.7817    0.0000 </r>
       <r>   13.9877    0.0000 </r>
       <r>   14.0828    0.0000 </r>
       <r>   15.0152    0.0000 </r>
       <r>   15.3034    0.0000 </r>
       <r>   16.0642    0.0000 </r>
       <r>   16.1839    0.0000 </r>
       <r>   16.4716    0.0000 </r>
       <r>   16.7964    0.0000 </r>
       <r>   17.1054    0.0000 </r>
       <r>   17.4875    0.0000 </r>
       <r>   18.0828    0.0000 </r>
       <r>   18.4225    0.0000 </r>
       <r>   18.7546    0.0000 </r>
       <r>   19.3174    0.0000 </r>
       <r>   19.6938    0.0000 </r>
       <r>   20.6259    0.0000 </r>
       <r>   21.1538    0.0000 </r>
      </set>
      <set comment="kpoint 14">
       <r>  -62.2723    1.0000 </r>
       <r>  -36.7667    1.0000 </r>
       <r>  -36.6284    1.0000 </r>
       <r>  -36.5499    1.0000 </r>
       <r>  -14.4757    1.0000 </r>
       <r>  -14.0770    1.0000 </r>
       <r>   -7.2156    1.0000 </r>
       <r>   -6.4385    1.0000 </r>
       <r>   -5.6345    1.0000 </r>
       <r>   -5.3141    1.0000 </r>
       <r>   -4.1767    1.0000 </r>
       <r>   -3.2081    1.0000 </r>
       <r>   -2.6480    1.0000 </r>
       <r>    0.2269    0.0000 </r>
       <r>    0.8814    0.0000 </r>
       <r>    1.2152    0.0000 </r>
       <r>    2.7581    0.0000 </r>
       <r>    5.8770    0.0000 </r>
       <r>    6.1472    0.0000 </r>
       <r>    6.5618    0.0000 </r>
       <r>    7.2399    0.0000 </r>
       <r>    7.4824    0.0000 </r>
       <r>    8.3310    0.0000 </r>
       <r>    8.4221    0.0000 </r>
       <r>    9.3988    0.0000 </r>
       <r>    9.8125    0.0000 </r>
       <r>   10.0525    0.0000 </r>
       <r>   11.1581    0.0000 </r>
       <r>   11.3190    0.0000 </r>
       <r>   11.9390    0.0000 </r>
       <r>   12.3462    0.0000 </r>
       <r>   13.1251    0.0000 </r>
       <r>   13.6491    0.0000 </r>
       <r>   14.3031    0.0000 </r>
       <r>   14.6531    0.0000 </r>
       <r>   14.8707    0.0000 </r>
       <r>   15.4131    0.0000 </r>
       <r>   15.8281    0.0000 </r>
       <r>   16.2627    0.0000 </r>
       <r>   16.4021    0.0000 </r>
       <r>   16.5601    0.0000 </r>
       <r>   17.0746    0.0000 </r>
       <r>   17.7831    0.0000 </r>
       <r>   18.0077    0.0000 </r>
       <r>   18.7170    0.0000 </r>
       <r>   18.9902    0.0000 </r>
       <r>   20.2303    0.0000 </r>
       <r>   20.4581    0.0000 </r>
      </set>
      <set comment="kpoint 15">
       <r>  -62.2643    1.0000 </r>
       <r>  -36.8222    1.0000 </r>
       <r>  -36.6132    1.0000 </r>
       <r>  -36.5835    1.0000 </r>
       <r>  -14.0697    1.0000 </r>
       <r>  -13.9157    1.0000 </r>
       <r>   -7.4195    1.0000 </r>
       <r>   -7.0023    1.0000 </r>
       <r>   -5.7974    1.0000 </r>
       <r>   -5.2102    1.0000 </r>
       <r>   -4.2745    1.0000 </r>
       <r>   -3.6137    1.0000 </r>
       <r>   -2.3905    1.0000 </r>
       <r>    0.4642    0.0000 </r>
       <r>    1.1225    0.0000 </r>
       <r>    1.5472    0.0000 </r>
       <r>    2.7725    0.0000 </r>
       <r>    5.2139    0.0000 </r>
       <r>    6.8018    0.0000 </r>
       <r>    6.8695    0.0000 </r>
       <r>    7.8035    0.0000 </r>
       <r>    7.9786    0.0000 </r>
       <r>    8.4628    0.0000 </r>
       <r>    8.8901    0.0000 </r>
       <r>    9.3202    0.0000 </r>
       <r>   10.0951    0.0000 </r>
       <r>   10.2120    0.0000 </r>
       <r>   11.2286    0.0000 </r>
       <r>   11.4974    0.0000 </r>
       <r>   11.9718    0.0000 </r>
       <r>   12.4914    0.0000 </r>
       <r>   12.6730    0.0000 </r>
       <r>   13.0601    0.0000 </r>
       <r>   13.3893    0.0000 </r>
       <r>   13.6878    0.0000 </r>
       <r>   14.3664    0.0000 </r>
       <r>   14.5887    0.0000 </r>
       <r>   15.2846    0.0000 </r>
       <r>   15.7128    0.0000 </r>
       <r>   15.8375    0.0000 </r>
       <r>   16.1191    0.0000 </r>
       <r>   17.0274    0.0000 </r>
       <r>   17.8363    0.0000 </r>
       <r>   17.9945    0.0000 </r>
       <r>   18.4108    0.0000 </r>
       <r>   19.4197    0.0000 </r>
       <r>   20.5278    0.0000 </r>
       <r>   21.5746    0.0000 </r>
      </set>
      <set comment="kpoint 16">
       <r>  -62.2614    1.0000 </r>
       <r>  -36.8423    1.0000 </r>
       <r>  -36.6076    1.0000 </r>
       <r>  -36.5961    1.0000 </r>
       <r>  -13.9079    1.0000 </r>
       <r>  -13.8521    1.0000 </r>
       <r>   -7.4938    1.0000 </r>
       <r>   -7.2079    1.0000 </r>
       <r>   -5.9555    1.0000 </r>
       <r>   -5.1231    1.0000 </r>
       <r>   -4.2508    1.0000 </r>
       <r>   -3.8116    1.0000 </r>
       <r>   -2.2029    1.0000 </r>
       <r>    0.4336    0.0000 </r>
       <r>    1.3756    0.0000 </r>
       <r>    1.6904    0.0000 </r>
       <r>    2.7294    0.0000 </r>
       <r>    4.7042    0.0000 </r>
       <r>    7.3292    0.0000 </r>
       <r>    7.4036    0.0000 </r>
       <r>    7.6799    0.0000 </r>
       <r>    7.7625    0.0000 </r>
       <r>    8.9909    0.0000 </r>
       <r>    8.9990    0.0000 </r>
       <r>    9.7065    0.0000 </r>
       <r>    9.9940    0.0000 </r>
       <r>   10.4230    0.0000 </r>
       <r>   10.5682    0.0000 </r>
       <r>   11.1469    0.0000 </r>
       <r>   11.2487    0.0000 </r>
       <r>   12.4540    0.0000 </r>
       <r>   12.6168    0.0000 </r>
       <r>   12.8521    0.0000 </r>
       <r>   13.7343    0.0000 </r>
       <r>   14.2056    0.0000 </r>
       <r>   14.4643    0.0000 </r>
       <r>   14.7018    0.0000 </r>
       <r>   15.2586    0.0000 </r>
       <r>   15.6990    0.0000 </r>
       <r>   15.9039    0.0000 </r>
       <r>   16.4234    0.0000 </r>
       <r>   17.2552    0.0000 </r>
       <r>   17.6576    0.0000 </r>
       <r>   17.7650    0.0000 </r>
       <r>   18.4189    0.0000 </r>
       <r>   19.4282    0.0000 </r>
       <r>   20.5381    0.0000 </r>
       <r>   22.2358    0.0000 </r>
      </set>
      <set comment="kpoint 17">
       <r>  -62.2643    1.0000 </r>
       <r>  -36.7949    1.0000 </r>
       <r>  -36.6132    1.0000 </r>
       <r>  -36.6119    1.0000 </r>
       <r>  -14.0775    1.0000 </r>
       <r>  -13.9082    1.0000 </r>
       <r>   -7.2164    1.0000 </r>
       <r>   -7.0370    1.0000 </r>
       <r>   -5.5083    1.0000 </r>
       <r>   -5.2494    1.0000 </r>
       <r>   -4.8994    1.0000 </r>
       <r>   -3.5186    1.0000 </r>
       <r>   -2.4278    1.0000 </r>
       <r>    0.4042    0.0000 </r>
       <r>    1.1569    0.0000 </r>
       <r>    1.2673    0.0000 </r>
       <r>    2.9820    0.0000 </r>
       <r>    5.7373    0.0000 </r>
       <r>    6.6043    0.0000 </r>
       <r>    6.8440    0.0000 </r>
       <r>    7.6994    0.0000 </r>
       <r>    8.1175    0.0000 </r>
       <r>    8.4573    0.0000 </r>
       <r>    9.1434    0.0000 </r>
       <r>   10.0594    0.0000 </r>
       <r>   10.2049    0.0000 </r>
       <r>   10.5912    0.0000 </r>
       <r>   11.2867    0.0000 </r>
       <r>   11.4790    0.0000 </r>
       <r>   11.9948    0.0000 </r>
       <r>   12.4739    0.0000 </r>
       <r>   12.9353    0.0000 </r>
       <r>   13.0471    0.0000 </r>
       <r>   13.2787    0.0000 </r>
       <r>   13.8551    0.0000 </r>
       <r>   13.8710    0.0000 </r>
       <r>   14.1874    0.0000 </r>
       <r>   14.6073    0.0000 </r>
       <r>   15.6006    0.0000 </r>
       <r>   15.6431    0.0000 </r>
       <r>   16.3263    0.0000 </r>
       <r>   16.5755    0.0000 </r>
       <r>   16.9499    0.0000 </r>
       <r>   17.7780    0.0000 </r>
       <r>   18.5758    0.0000 </r>
       <r>   19.3945    0.0000 </r>
       <r>   20.3832    0.0000 </r>
       <r>   21.4226    0.0000 </r>
      </set>
      <set comment="kpoint 18">
       <r>  -62.2597    1.0000 </r>
       <r>  -36.8006    1.0000 </r>
       <r>  -36.6582    1.0000 </r>
       <r>  -36.6044    1.0000 </r>
       <r>  -13.8284    1.0000 </r>
       <r>  -13.7991    1.0000 </r>
       <r>   -7.4103    1.0000 </r>
       <r>   -7.0830    1.0000 </r>
       <r>   -5.8154    1.0000 </r>
       <r>   -5.1423    1.0000 </r>
       <r>   -5.0270    1.0000 </r>
       <r>   -3.8815    1.0000 </r>
       <r>   -2.1051    1.0000 </r>
       <r>    0.1990    0.0000 </r>
       <r>    1.2805    0.0000 </r>
       <r>    1.6218    0.0000 </r>
       <r>    3.1467    0.0000 </r>
       <r>    5.2063    0.0000 </r>
       <r>    6.4138    0.0000 </r>
       <r>    7.4187    0.0000 </r>
       <r>    8.2525    0.0000 </r>
       <r>    8.8602    0.0000 </r>
       <r>    9.5110    0.0000 </r>
       <r>    9.5819    0.0000 </r>
       <r>   10.3324    0.0000 </r>
       <r>   10.4623    0.0000 </r>
       <r>   10.6629    0.0000 </r>
       <r>   11.1869    0.0000 </r>
       <r>   11.2513    0.0000 </r>
       <r>   11.7454    0.0000 </r>
       <r>   12.0870    0.0000 </r>
       <r>   12.6409    0.0000 </r>
       <r>   12.7799    0.0000 </r>
       <r>   12.9248    0.0000 </r>
       <r>   13.2962    0.0000 </r>
       <r>   13.6183    0.0000 </r>
       <r>   13.8660    0.0000 </r>
       <r>   14.0005    0.0000 </r>
       <r>   14.7271    0.0000 </r>
       <r>   15.2355    0.0000 </r>
       <r>   16.0182    0.0000 </r>
       <r>   16.3703    0.0000 </r>
       <r>   16.9301    0.0000 </r>
       <r>   17.1956    0.0000 </r>
       <r>   18.4100    0.0000 </r>
       <r>   18.8740    0.0000 </r>
       <r>   19.8013    0.0000 </r>
       <r>   20.7390    0.0000 </r>
      </set>
      <set comment="kpoint 19">
       <r>  -62.2580    1.0000 </r>
       <r>  -36.7658    1.0000 </r>
       <r>  -36.7125    1.0000 </r>
       <r>  -36.6012    1.0000 </r>
       <r>  -13.7523    1.0000 </r>
       <r>  -13.7382    1.0000 </r>
       <r>   -7.5718    1.0000 </r>
       <r>   -6.6706    1.0000 </r>
       <r>   -6.1287    1.0000 </r>
       <r>   -5.4546    1.0000 </r>
       <r>   -4.8544    1.0000 </r>
       <r>   -4.0814    1.0000 </r>
       <r>   -1.9072    1.0000 </r>
       <r>   -0.0492    0.0000 </r>
       <r>    1.1589    0.0000 </r>
       <r>    1.8892    0.0000 </r>
       <r>    3.3418    0.0000 </r>
       <r>    5.4877    0.0000 </r>
       <r>    5.7086    0.0000 </r>
       <r>    7.6868    0.0000 </r>
       <r>    8.8409    0.0000 </r>
       <r>    9.4252    0.0000 </r>
       <r>    9.9892    0.0000 </r>
       <r>   10.0806    0.0000 </r>
       <r>   10.4846    0.0000 </r>
       <r>   10.7489    0.0000 </r>
       <r>   11.2123    0.0000 </r>
       <r>   11.3327    0.0000 </r>
       <r>   11.4772    0.0000 </r>
       <r>   11.6566    0.0000 </r>
       <r>   11.9863    0.0000 </r>
       <r>   12.2703    0.0000 </r>
       <r>   12.4233    0.0000 </r>
       <r>   12.5367    0.0000 </r>
       <r>   12.7761    0.0000 </r>
       <r>   13.0406    0.0000 </r>
       <r>   14.1334    0.0000 </r>
       <r>   14.3223    0.0000 </r>
       <r>   14.3798    0.0000 </r>
       <r>   14.8974    0.0000 </r>
       <r>   15.1859    0.0000 </r>
       <r>   15.6008    0.0000 </r>
       <r>   17.0090    0.0000 </r>
       <r>   17.4916    0.0000 </r>
       <r>   17.9854    0.0000 </r>
       <r>   18.0702    0.0000 </r>
       <r>   19.1926    0.0000 </r>
       <r>   20.4098    0.0000 </r>
      </set>
     </set>
    </set>
   </array>
  </eigenvalues>
  <separator name="orbital magnetization" >
   <v name="MAGDIPOLOUT">      0.00000000      0.00000000      0.00000000</v>
  </separator>
  <dielectricfunction>
   <imag>
    <array>
     <dimension dim="1">gridpoints</dimension>
     <field>energy</field>
     <field>xx</field>
     <field>yy</field>
     <field>zz</field>
     <field>xy</field>
     <field>yz</field>
     <field>zx</field>
     <set>
      <r>     0.0000     0.0000     0.0000     0.0000     0.0000     0.0000     0.0000 </r>
      <r>     0.0524     0.0043     0.0043     0.0007     0.0000     0.0000     0.0000 </r>
      <r>     0.1047     0.0085     0.0085     0.0014     0.0000     0.0000     0.0000 </r>
      <r>     0.1571     0.0128     0.0128     0.0021     0.0000     0.0000     0.0000 </r>
      <r>     0.2095     0.0172     0.0172     0.0028     0.0000     0.0000     0.0000 </r>
      <r>     0.2619     0.0216     0.0216     0.0035     0.0000     0.0000     0.0000 </r>
      <r>     0.3142     0.0262     0.0262     0.0042     0.0000     0.0000     0.0000 </r>
      <r>     0.3666     0.0308     0.0308     0.0050     0.0000     0.0000     0.0000 </r>
      <r>     0.4190     0.0356     0.0356     0.0057     0.0000     0.0000     0.0000 </r>
      <r>     0.4714     0.0406     0.0406     0.0064     0.0000     0.0000     0.0000 </r>
      <r>     0.5237     0.0458     0.0458     0.0072     0.0000     0.0000     0.0000 </r>
      <r>     0.5761     0.0512     0.0512     0.0079     0.0000     0.0000     0.0000 </r>
      <r>     0.6285     0.0569     0.0569     0.0087     0.0000     0.0000     0.0000 </r>
      <r>     0.6809     0.0629     0.0629     0.0095     0.0000     0.0000     0.0000 </r>
      <r>     0.7332     0.0692     0.0692     0.0103     0.0000     0.0000     0.0000 </r>
      <r>     0.7856     0.0760     0.0760     0.0111     0.0000     0.0000     0.0000 </r>
      <r>     0.8380     0.0833     0.0833     0.0119     0.0000     0.0000     0.0000 </r>
      <r>     0.8904     0.0912     0.0912     0.0127     0.0000     0.0000     0.0000 </r>
      <r>     0.9427     0.0997     0.0997     0.0136     0.0000     0.0000     0.0000 </r>
      <r>     0.9951     0.1090     0.1090     0.0145     0.0000     0.0000     0.0000 </r>
      <r>     1.0475     0.1193     0.1193     0.0154     0.0000     0.0000     0.0000 </r>
      <r>     1.0999     0.1307     0.1307     0.0163     0.0000     0.0000     0.0000 </r>
      <r>     1.1522     0.1435     0.1435     0.0173     0.0000     0.0000     0.0000 </r>
      <r>     1.2046     0.1581     0.1581     0.0183     0.0000     0.0000     0.0000 </r>
      <r>     1.2570     0.1748     0.1748     0.0193     0.0000     0.0000     0.0000 </r>
      <r>     1.3094     0.1943     0.1943     0.0204     0.0000     0.0000     0.0000 </r>
      <r>     1.3617     0.2176     0.2176     0.0215     0.0000     0.0000     0.0000 </r>
      <r>     1.4141     0.2460     0.2460     0.0227     0.0000     0.0000     0.0000 </r>
      <r>     1.4665     0.2817     0.2817     0.0239     0.0000     0.0000     0.0000 </r>
      <r>     1.5189     0.3283     0.3283     0.0251     0.0000     0.0000     0.0000 </r>
      <r>     1.5712     0.3923     0.3923     0.0264     0.0000     0.0000     0.0000 </r>
      <r>     1.6236     0.4859     0.4859     0.0278     0.0000     0.0000     0.0000 </r>
      <r>     1.6760     0.6334     0.6334     0.0292     0.0000     0.0000     0.0000 </r>
      <r>     1.7284     0.8822     0.8822     0.0307     0.0000     0.0000     0.0000 </r>
      <r>     1.7807     1.2860     1.2860     0.0324     0.0000     0.0000     0.0000 </r>
      <r>     1.8331     1.6981     1.6981     0.0341     0.0000     0.0000     0.0000 </r>
      <r>     1.8855     1.7251     1.7251     0.0359     0.0000     0.0000     0.0000 </r>
      <r>     1.9379     1.4412     1.4412     0.0378     0.0000     0.0000     0.0000 </r>
      <r>     1.9902     1.2318     1.2318     0.0399     0.0000     0.0000     0.0000 </r>
      <r>     2.0426     1.2198     1.2198     0.0421     0.0000     0.0000     0.0000 </r>
      <r>     2.0950     1.3953     1.3953     0.0445     0.0000     0.0000     0.0000 </r>
      <r>     2.1474     1.8042     1.8042     0.0471     0.0000     0.0000     0.0000 </r>
      <r>     2.1997     2.5939     2.5939     0.0500     0.0000     0.0000     0.0000 </r>
      <r>     2.2521     3.8935     3.8935     0.0531     0.0000     0.0000     0.0000 </r>
      <r>     2.3045     4.8668     4.8668     0.0566     0.0000     0.0000     0.0000 </r>
      <r>     2.3569     4.1880     4.1880     0.0606     0.0000     0.0000     0.0000 </r>
      <r>     2.4092     3.2272     3.2272     0.0651     0.0000     0.0000     0.0000 </r>
      <r>     2.4616     2.8839     2.8839     0.0702     0.0000     0.0000     0.0000 </r>
      <r>     2.5140     3.1359     3.1359     0.0763     0.0000     0.0000     0.0000 </r>
      <r>     2.5663     3.9728     3.9728     0.0836     0.0000     0.0000     0.0000 </r>
      <r>     2.6187     5.2263     5.2263     0.0928     0.0000     0.0000     0.0000 </r>
      <r>     2.6711     6.6426     6.6426     0.1046     0.0000     0.0000     0.0000 </r>
      <r>     2.7235     8.4120     8.4120     0.1208     0.0000     0.0000     0.0000 </r>
      <r>     2.7758     9.7837     9.7837     0.1446     0.0000     0.0000     0.0000 </r>
      <r>     2.8282    10.3961    10.3961     0.1821     0.0000     0.0000     0.0000 </r>
      <r>     2.8806    10.7441    10.7441     0.2390     0.0000     0.0000     0.0000 </r>
      <r>     2.9330    10.7229    10.7229     0.2966     0.0000     0.0000     0.0000 </r>
      <r>     2.9853    10.2424    10.2424     0.3264     0.0000     0.0000     0.0000 </r>
      <r>     3.0377     9.3262     9.3262     0.3650     0.0000     0.0000     0.0000 </r>
      <r>     3.0901     8.1574     8.1574     0.4023     0.0000     0.0000     0.0000 </r>
      <r>     3.1425     7.4064     7.4064     0.4087     0.0000     0.0000     0.0000 </r>
      <r>     3.1948     7.1360     7.1360     0.4381     0.0000     0.0000     0.0000 </r>
      <r>     3.2472     7.0292     7.0292     0.5440     0.0000     0.0000     0.0000 </r>
      <r>     3.2996     6.5373     6.5373     0.7548     0.0000     0.0000     0.0000 </r>
      <r>     3.3520     5.9623     5.9623     1.0343     0.0000     0.0000     0.0000 </r>
      <r>     3.4043     5.6749     5.6749     1.2064     0.0000     0.0000     0.0000 </r>
      <r>     3.4567     5.6258     5.6258     1.1329     0.0000     0.0000     0.0000 </r>
      <r>     3.5091     5.6829     5.6829     0.9576     0.0000     0.0000     0.0000 </r>
      <r>     3.5615     6.0693     6.0693     0.8453     0.0000     0.0000     0.0000 </r>
      <r>     3.6138     6.6278     6.6278     0.8025     0.0000     0.0000     0.0000 </r>
      <r>     3.6662     7.1385     7.1385     0.8153     0.0000     0.0000     0.0000 </r>
      <r>     3.7186     6.9780     6.9780     0.8726     0.0000     0.0000     0.0000 </r>
      <r>     3.7710     6.6647     6.6647     0.9867     0.0000     0.0000     0.0000 </r>
      <r>     3.8233     6.0421     6.0421     1.2161     0.0000     0.0000     0.0000 </r>
      <r>     3.8757     5.4606     5.4606     1.4755     0.0000     0.0000     0.0000 </r>
      <r>     3.9281     4.7708     4.7708     1.5451     0.0000     0.0000     0.0000 </r>
      <r>     3.9805     3.7448     3.7448     1.3874     0.0000     0.0000     0.0000 </r>
      <r>     4.0328     2.9543     2.9543     1.2474     0.0000     0.0000     0.0000 </r>
      <r>     4.0852     2.6439     2.6439     1.1059     0.0000     0.0000     0.0000 </r>
      <r>     4.1376     2.7485     2.7485     0.9016     0.0000     0.0000     0.0000 </r>
      <r>     4.1900     3.2941     3.2941     0.7582     0.0000     0.0000     0.0000 </r>
      <r>     4.2423     4.3728     4.3728     0.7262     0.0000     0.0000     0.0000 </r>
      <r>     4.2947     5.7540     5.7540     0.7829     0.0000     0.0000     0.0000 </r>
      <r>     4.3471     7.0687     7.0687     0.8651     0.0000     0.0000     0.0000 </r>
      <r>     4.3995     7.9443     7.9443     0.9158     0.0000     0.0000     0.0000 </r>
      <r>     4.4518     7.1064     7.1064     1.0207     0.0000     0.0000     0.0000 </r>
      <r>     4.5042     5.5460     5.5460     1.2195     0.0000     0.0000     0.0000 </r>
      <r>     4.5566     4.6914     4.6914     1.4922     0.0000     0.0000     0.0000 </r>
      <r>     4.6090     4.4632     4.4632     1.8505     0.0000     0.0000     0.0000 </r>
      <r>     4.6613     4.2653     4.2653     2.3393     0.0000     0.0000     0.0000 </r>
      <r>     4.7137     4.1175     4.1175     2.9260     0.0000     0.0000     0.0000 </r>
      <r>     4.7661     3.9512     3.9512     3.3880     0.0000     0.0000     0.0000 </r>
      <r>     4.8185     3.3521     3.3521     3.5537     0.0000     0.0000     0.0000 </r>
      <r>     4.8708     2.8157     2.8157     3.4293     0.0000     0.0000     0.0000 </r>
      <r>     4.9232     2.6877     2.6877     3.1328     0.0000     0.0000     0.0000 </r>
      <r>     4.9756     2.8334     2.8334     2.9070     0.0000     0.0000     0.0000 </r>
      <r>     5.0280     3.1377     3.1377     2.9493     0.0000     0.0000     0.0000 </r>
      <r>     5.0803     3.6275     3.6275     3.2046     0.0000     0.0000     0.0000 </r>
      <r>     5.1327     4.2036     4.2036     3.8810     0.0000     0.0000     0.0000 </r>
      <r>     5.1851     4.5383     4.5383     4.9483     0.0000     0.0000     0.0000 </r>
      <r>     5.2374     4.3334     4.3334     5.9020     0.0000     0.0000     0.0000 </r>
      <r>     5.2898     4.0493     4.0493     6.2687     0.0000     0.0000     0.0000 </r>
      <r>     5.3422     4.0232     4.0232     6.5189     0.0000     0.0000     0.0000 </r>
      <r>     5.3946     3.7767     3.7767     7.1104     0.0000     0.0000     0.0000 </r>
      <r>     5.4469     3.3365     3.3365     7.6707     0.0000     0.0000     0.0000 </r>
      <r>     5.4993     3.0653     3.0653     8.0146     0.0000     0.0000     0.0000 </r>
      <r>     5.5517     2.8759     2.8759     8.1528     0.0000     0.0000     0.0000 </r>
      <r>     5.6041     2.6690     2.6690     7.9498     0.0000     0.0000     0.0000 </r>
      <r>     5.6564     2.4844     2.4844     7.5847     0.0000     0.0000     0.0000 </r>
      <r>     5.7088     2.3638     2.3638     7.3000     0.0000     0.0000     0.0000 </r>
      <r>     5.7612     2.4558     2.4558     7.2369     0.0000     0.0000     0.0000 </r>
      <r>     5.8136     2.6797     2.6797     6.8463     0.0000     0.0000     0.0000 </r>
      <r>     5.8659     2.8589     2.8589     6.3742     0.0000     0.0000     0.0000 </r>
      <r>     5.9183     2.8768     2.8768     6.3349     0.0000     0.0000     0.0000 </r>
      <r>     5.9707     2.9795     2.9795     6.0892     0.0000     0.0000     0.0000 </r>
      <r>     6.0231     3.1450     3.1450     5.6419     0.0000     0.0000     0.0000 </r>
      <r>     6.0754     3.2736     3.2736     5.3981     0.0000     0.0000     0.0000 </r>
      <r>     6.1278     3.1084     3.1084     4.8598     0.0000     0.0000     0.0000 </r>
      <r>     6.1802     2.7317     2.7317     3.9434     0.0000     0.0000     0.0000 </r>
      <r>     6.2326     2.5283     2.5283     2.9948     0.0000     0.0000     0.0000 </r>
      <r>     6.2849     2.5375     2.5375     2.4159     0.0000     0.0000     0.0000 </r>
      <r>     6.3373     2.6087     2.6087     2.2929     0.0000     0.0000     0.0000 </r>
      <r>     6.3897     2.6609     2.6609     2.4397     0.0000     0.0000     0.0000 </r>
      <r>     6.4421     2.7146     2.7146     2.4606     0.0000     0.0000     0.0000 </r>
      <r>     6.4944     2.6981     2.6981     2.2002     0.0000     0.0000     0.0000 </r>
      <r>     6.5468     2.5250     2.5250     1.9984     0.0000     0.0000     0.0000 </r>
      <r>     6.5992     2.2784     2.2784     2.0941     0.0000     0.0000     0.0000 </r>
      <r>     6.6516     2.1558     2.1558     2.2893     0.0000     0.0000     0.0000 </r>
      <r>     6.7039     2.1834     2.1834     2.2425     0.0000     0.0000     0.0000 </r>
      <r>     6.7563     2.3658     2.3658     2.1270     0.0000     0.0000     0.0000 </r>
      <r>     6.8087     2.4146     2.4146     2.0427     0.0000     0.0000     0.0000 </r>
      <r>     6.8611     2.2644     2.2644     2.1975     0.0000     0.0000     0.0000 </r>
      <r>     6.9134     2.1306     2.1306     2.5270     0.0000     0.0000     0.0000 </r>
      <r>     6.9658     2.0328     2.0328     2.6370     0.0000     0.0000     0.0000 </r>
      <r>     7.0182     1.8638     1.8638     2.4642     0.0000     0.0000     0.0000 </r>
      <r>     7.0706     1.6152     1.6152     2.1520     0.0000     0.0000     0.0000 </r>
      <r>     7.1229     1.4538     1.4538     1.7965     0.0000     0.0000     0.0000 </r>
      <r>     7.1753     1.4824     1.4824     1.5495     0.0000     0.0000     0.0000 </r>
      <r>     7.2277     1.5788     1.5788     1.5176     0.0000     0.0000     0.0000 </r>
      <r>     7.2801     1.5483     1.5483     1.6161     0.0000     0.0000     0.0000 </r>
      <r>     7.3324     1.3914     1.3914     1.7073     0.0000     0.0000     0.0000 </r>
      <r>     7.3848     1.2402     1.2402     1.8070     0.0000     0.0000     0.0000 </r>
      <r>     7.4372     1.1208     1.1208     1.9624     0.0000     0.0000     0.0000 </r>
      <r>     7.4896     1.0947     1.0947     2.1791     0.0000     0.0000     0.0000 </r>
      <r>     7.5419     1.2432     1.2432     2.2107     0.0000     0.0000     0.0000 </r>
      <r>     7.5943     1.4358     1.4358     1.9320     0.0000     0.0000     0.0000 </r>
      <r>     7.6467     1.4212     1.4212     1.5806     0.0000     0.0000     0.0000 </r>
      <r>     7.6990     1.3373     1.3373     1.3724     0.0000     0.0000     0.0000 </r>
      <r>     7.7514     1.2516     1.2516     1.3706     0.0000     0.0000     0.0000 </r>
      <r>     7.8038     1.2334     1.2334     1.5841     0.0000     0.0000     0.0000 </r>
      <r>     7.8562     1.3038     1.3038     2.0007     0.0000     0.0000     0.0000 </r>
      <r>     7.9085     1.3477     1.3477     2.4011     0.0000     0.0000     0.0000 </r>
      <r>     7.9609     1.2817     1.2817     2.5346     0.0000     0.0000     0.0000 </r>
      <r>     8.0133     1.1821     1.1821     2.5375     0.0000     0.0000     0.0000 </r>
      <r>     8.0657     1.1377     1.1377     2.6700     0.0000     0.0000     0.0000 </r>
      <r>     8.1180     1.1412     1.1412     2.9380     0.0000     0.0000     0.0000 </r>
      <r>     8.1704     1.1249     1.1249     2.9668     0.0000     0.0000     0.0000 </r>
      <r>     8.2228     1.0301     1.0301     2.9617     0.0000     0.0000     0.0000 </r>
      <r>     8.2752     0.8928     0.8928     3.0921     0.0000     0.0000     0.0000 </r>
      <r>     8.3275     0.7726     0.7726     3.2157     0.0000     0.0000     0.0000 </r>
      <r>     8.3799     0.7071     0.7071     3.3563     0.0000     0.0000     0.0000 </r>
      <r>     8.4323     0.6998     0.6998     3.4944     0.0000     0.0000     0.0000 </r>
      <r>     8.4847     0.7310     0.7310     3.4905     0.0000     0.0000     0.0000 </r>
      <r>     8.5370     0.7693     0.7693     3.3940     0.0000     0.0000     0.0000 </r>
      <r>     8.5894     0.7562     0.7562     3.2336     0.0000     0.0000     0.0000 </r>
      <r>     8.6418     0.7499     0.7499     2.8746     0.0000     0.0000     0.0000 </r>
      <r>     8.6942     0.7463     0.7463     2.5588     0.0000     0.0000     0.0000 </r>
      <r>     8.7465     0.7373     0.7373     2.3143     0.0000     0.0000     0.0000 </r>
      <r>     8.7989     0.7605     0.7605     2.1941     0.0000     0.0000     0.0000 </r>
      <r>     8.8513     0.7881     0.7881     2.0371     0.0000     0.0000     0.0000 </r>
      <r>     8.9037     0.8810     0.8810     1.9531     0.0000     0.0000     0.0000 </r>
      <r>     8.9560     1.0684     1.0684     2.0016     0.0000     0.0000     0.0000 </r>
      <r>     9.0084     1.2182     1.2182     1.9421     0.0000     0.0000     0.0000 </r>
      <r>     9.0608     1.1879     1.1879     1.7906     0.0000     0.0000     0.0000 </r>
      <r>     9.1132     1.0678     1.0678     1.7409     0.0000     0.0000     0.0000 </r>
      <r>     9.1655     1.0527     1.0527     1.7643     0.0000     0.0000     0.0000 </r>
      <r>     9.2179     1.1233     1.1233     1.6997     0.0000     0.0000     0.0000 </r>
      <r>     9.2703     1.1500     1.1500     1.5283     0.0000     0.0000     0.0000 </r>
      <r>     9.3227     1.1246     1.1246     1.3069     0.0000     0.0000     0.0000 </r>
      <r>     9.3750     1.0751     1.0751     1.1945     0.0000     0.0000     0.0000 </r>
      <r>     9.4274     1.0386     1.0386     1.2533     0.0000     0.0000     0.0000 </r>
      <r>     9.4798     1.0809     1.0809     1.5058     0.0000     0.0000     0.0000 </r>
      <r>     9.5322     1.2121     1.2121     1.8827     0.0000     0.0000     0.0000 </r>
      <r>     9.5845     1.3867     1.3867     2.2683     0.0000     0.0000     0.0000 </r>
      <r>     9.6369     1.4223     1.4223     2.8006     0.0000     0.0000     0.0000 </r>
      <r>     9.6893     1.2281     1.2281     3.3115     0.0000     0.0000     0.0000 </r>
      <r>     9.7417     0.9872     0.9872     3.4697     0.0000     0.0000     0.0000 </r>
      <r>     9.7940     0.8536     0.8536     3.3732     0.0000     0.0000     0.0000 </r>
      <r>     9.8464     0.8359     0.8359     3.1174     0.0000     0.0000     0.0000 </r>
      <r>     9.8988     0.9355     0.9355     2.9347     0.0000     0.0000     0.0000 </r>
      <r>     9.9512     1.1177     1.1177     2.7398     0.0000     0.0000     0.0000 </r>
      <r>    10.0035     1.2766     1.2766     2.4893     0.0000     0.0000     0.0000 </r>
      <r>    10.0559     1.3470     1.3470     2.3027     0.0000     0.0000     0.0000 </r>
      <r>    10.1083     1.4004     1.4004     2.3086     0.0000     0.0000     0.0000 </r>
      <r>    10.1606     1.5124     1.5124     2.4339     0.0000     0.0000     0.0000 </r>
      <r>    10.2130     1.5617     1.5617     2.4778     0.0000     0.0000     0.0000 </r>
      <r>    10.2654     1.5773     1.5773     2.3745     0.0000     0.0000     0.0000 </r>
      <r>    10.3178     1.7836     1.7836     2.2409     0.0000     0.0000     0.0000 </r>
      <r>    10.3701     2.1185     2.1185     2.1736     0.0000     0.0000     0.0000 </r>
      <r>    10.4225     2.2256     2.2256     2.3374     0.0000     0.0000     0.0000 </r>
      <r>    10.4749     2.0653     2.0653     2.4814     0.0000     0.0000     0.0000 </r>
      <r>    10.5273     1.8486     1.8486     2.2946     0.0000     0.0000     0.0000 </r>
      <r>    10.5796     1.7655     1.7655     2.0061     0.0000     0.0000     0.0000 </r>
      <r>    10.6320     1.7203     1.7203     1.7206     0.0000     0.0000     0.0000 </r>
      <r>    10.6844     1.6660     1.6660     1.4992     0.0000     0.0000     0.0000 </r>
      <r>    10.7368     1.6098     1.6098     1.3945     0.0000     0.0000     0.0000 </r>
      <r>    10.7891     1.6593     1.6593     1.3377     0.0000     0.0000     0.0000 </r>
      <r>    10.8415     1.8963     1.8963     1.3896     0.0000     0.0000     0.0000 </r>
      <r>    10.8939     2.1497     2.1497     1.5020     0.0000     0.0000     0.0000 </r>
      <r>    10.9463     2.1242     2.1242     1.5531     0.0000     0.0000     0.0000 </r>
      <r>    10.9986     2.0149     2.0149     1.4557     0.0000     0.0000     0.0000 </r>
      <r>    11.0510     1.8817     1.8817     1.3415     0.0000     0.0000     0.0000 </r>
      <r>    11.1034     1.8448     1.8448     1.3253     0.0000     0.0000     0.0000 </r>
      <r>    11.1558     1.8621     1.8621     1.4704     0.0000     0.0000     0.0000 </r>
      <r>    11.2081     1.7193     1.7193     1.6193     0.0000     0.0000     0.0000 </r>
      <r>    11.2605     1.6217     1.6217     1.4644     0.0000     0.0000     0.0000 </r>
      <r>    11.3129     1.6009     1.6009     1.2679     0.0000     0.0000     0.0000 </r>
      <r>    11.3653     1.5486     1.5486     1.2597     0.0000     0.0000     0.0000 </r>
      <r>    11.4176     1.5416     1.5416     1.4163     0.0000     0.0000     0.0000 </r>
      <r>    11.4700     1.5529     1.5529     1.6075     0.0000     0.0000     0.0000 </r>
      <r>    11.5224     1.5822     1.5822     1.7512     0.0000     0.0000     0.0000 </r>
      <r>    11.5748     1.5126     1.5126     1.7425     0.0000     0.0000     0.0000 </r>
      <r>    11.6271     1.3099     1.3099     1.5924     0.0000     0.0000     0.0000 </r>
      <r>    11.6795     1.1600     1.1600     1.4410     0.0000     0.0000     0.0000 </r>
      <r>    11.7319     1.0969     1.0969     1.3639     0.0000     0.0000     0.0000 </r>
      <r>    11.7843     1.0117     1.0117     1.3487     0.0000     0.0000     0.0000 </r>
      <r>    11.8366     0.9271     0.9271     1.3762     0.0000     0.0000     0.0000 </r>
      <r>    11.8890     0.9434     0.9434     1.3225     0.0000     0.0000     0.0000 </r>
      <r>    11.9414     1.0415     1.0415     1.2436     0.0000     0.0000     0.0000 </r>
      <r>    11.9938     1.0817     1.0817     1.2859     0.0000     0.0000     0.0000 </r>
      <r>    12.0461     1.0580     1.0580     1.4293     0.0000     0.0000     0.0000 </r>
      <r>    12.0985     1.0432     1.0432     1.5350     0.0000     0.0000     0.0000 </r>
      <r>    12.1509     1.0187     1.0187     1.5560     0.0000     0.0000     0.0000 </r>
      <r>    12.2033     0.9389     0.9389     1.4353     0.0000     0.0000     0.0000 </r>
      <r>    12.2556     0.8268     0.8268     1.2438     0.0000     0.0000     0.0000 </r>
      <r>    12.3080     0.7465     0.7465     1.1028     0.0000     0.0000     0.0000 </r>
      <r>    12.3604     0.7242     0.7242     1.0592     0.0000     0.0000     0.0000 </r>
      <r>    12.4128     0.7700     0.7700     1.0740     0.0000     0.0000     0.0000 </r>
      <r>    12.4651     0.8663     0.8663     1.0707     0.0000     0.0000     0.0000 </r>
      <r>    12.5175     0.9823     0.9823     1.0530     0.0000     0.0000     0.0000 </r>
      <r>    12.5699     1.0867     1.0867     1.0101     0.0000     0.0000     0.0000 </r>
      <r>    12.6223     1.1443     1.1443     0.9347     0.0000     0.0000     0.0000 </r>
      <r>    12.6746     1.1000     1.1000     0.8596     0.0000     0.0000     0.0000 </r>
      <r>    12.7270     0.9824     0.9824     0.8484     0.0000     0.0000     0.0000 </r>
      <r>    12.7794     0.8836     0.8836     0.8683     0.0000     0.0000     0.0000 </r>
      <r>    12.8317     0.8472     0.8472     0.8979     0.0000     0.0000     0.0000 </r>
      <r>    12.8841     0.8879     0.8879     0.9806     0.0000     0.0000     0.0000 </r>
      <r>    12.9365     0.9575     0.9575     1.0953     0.0000     0.0000     0.0000 </r>
      <r>    12.9889     0.9792     0.9792     1.1473     0.0000     0.0000     0.0000 </r>
      <r>    13.0412     0.8509     0.8509     1.1138     0.0000     0.0000     0.0000 </r>
      <r>    13.0936     0.7136     0.7136     0.9650     0.0000     0.0000     0.0000 </r>
      <r>    13.1460     0.6629     0.6629     0.8560     0.0000     0.0000     0.0000 </r>
      <r>    13.1984     0.6859     0.6859     0.7971     0.0000     0.0000     0.0000 </r>
      <r>    13.2507     0.7388     0.7388     0.7141     0.0000     0.0000     0.0000 </r>
      <r>    13.3031     0.7547     0.7547     0.6393     0.0000     0.0000     0.0000 </r>
      <r>    13.3555     0.7302     0.7302     0.6057     0.0000     0.0000     0.0000 </r>
      <r>    13.4079     0.7112     0.7112     0.6070     0.0000     0.0000     0.0000 </r>
      <r>    13.4602     0.7423     0.7423     0.6374     0.0000     0.0000     0.0000 </r>
      <r>    13.5126     0.8238     0.8238     0.6703     0.0000     0.0000     0.0000 </r>
      <r>    13.5650     0.8965     0.8965     0.7082     0.0000     0.0000     0.0000 </r>
      <r>    13.6174     0.9109     0.9109     0.7440     0.0000     0.0000     0.0000 </r>
      <r>    13.6697     0.8734     0.8734     0.8109     0.0000     0.0000     0.0000 </r>
      <r>    13.7221     0.8627     0.8627     0.9030     0.0000     0.0000     0.0000 </r>
      <r>    13.7745     0.8810     0.8810     0.9767     0.0000     0.0000     0.0000 </r>
      <r>    13.8269     0.8765     0.8765     1.0031     0.0000     0.0000     0.0000 </r>
      <r>    13.8792     0.8652     0.8652     0.9288     0.0000     0.0000     0.0000 </r>
      <r>    13.9316     0.8447     0.8447     0.8192     0.0000     0.0000     0.0000 </r>
      <r>    13.9840     0.7727     0.7727     0.7756     0.0000     0.0000     0.0000 </r>
      <r>    14.0364     0.6904     0.6904     0.7850     0.0000     0.0000     0.0000 </r>
      <r>    14.0887     0.6306     0.6306     0.7676     0.0000     0.0000     0.0000 </r>
      <r>    14.1411     0.5937     0.5937     0.7298     0.0000     0.0000     0.0000 </r>
      <r>    14.1935     0.5704     0.5704     0.7044     0.0000     0.0000     0.0000 </r>
      <r>    14.2459     0.5654     0.5654     0.7015     0.0000     0.0000     0.0000 </r>
      <r>    14.2982     0.5719     0.5719     0.7267     0.0000     0.0000     0.0000 </r>
      <r>    14.3506     0.5841     0.5841     0.7439     0.0000     0.0000     0.0000 </r>
      <r>    14.4030     0.6046     0.6046     0.7664     0.0000     0.0000     0.0000 </r>
[...]
       </set>
       <set comment="band 32">
        <r>  0.0051  0.0257  0.0053 </r>
        <r>  0.0097  0.0100  0.0000 </r>
        <r>  0.0026  0.0002  0.0000 </r>
       </set>
       <set comment="band 33">
        <r>  0.0000  0.0203  0.0169 </r>
        <r>  0.0082  0.0293  0.0000 </r>
        <r>  0.0072  0.0348  0.0000 </r>
       </set>
       <set comment="band 34">
        <r>  0.0003  0.0060  0.0105 </r>
        <r>  0.0007  0.0060  0.0000 </r>
        <r>  0.0008  0.0069  0.0000 </r>
       </set>
       <set comment="band 35">
        <r>  0.0001  0.0203  0.0052 </r>
        <r>  0.0002  0.0023  0.0000 </r>
        <r>  0.0009  0.0013  0.0000 </r>
       </set>
       <set comment="band 36">
        <r>  0.0004  0.0189  0.0042 </r>
        <r>  0.0022  0.0012  0.0000 </r>
        <r>  0.0034  0.0004  0.0000 </r>
       </set>
       <set comment="band 37">
        <r>  0.0006  0.0035  0.0243 </r>
        <r>  0.0006  0.0033  0.0000 </r>
        <r>  0.0001  0.0031  0.0000 </r>
       </set>
       <set comment="band 38">
        <r>  0.0022  0.0090  0.0260 </r>
        <r>  0.0007  0.0078  0.0000 </r>
        <r>  0.0005  0.0067  0.0000 </r>
       </set>
       <set comment="band 39">
        <r>  0.0001  0.0135  0.0147 </r>
        <r>  0.0010  0.0045  0.0000 </r>
        <r>  0.0009  0.0193  0.0000 </r>
       </set>
       <set comment="band 40">
        <r>  0.0002  0.0311  0.0164 </r>
        <r>  0.0005  0.0146  0.0000 </r>
        <r>  0.0050  0.0024  0.0000 </r>
       </set>
       <set comment="band 41">
        <r>  0.0027  0.0165  0.0053 </r>
        <r>  0.0016  0.0050  0.0000 </r>
        <r>  0.0014  0.0033  0.0000 </r>
       </set>
       <set comment="band 42">
        <r>  0.0019  0.0061  0.0247 </r>
        <r>  0.0006  0.0053  0.0000 </r>
        <r>  0.0002  0.0071  0.0000 </r>
       </set>
       <set comment="band 43">
        <r>  0.0101  0.0096  0.0193 </r>
        <r>  0.0001  0.0137  0.0000 </r>
        <r>  0.0003  0.0157  0.0000 </r>
       </set>
       <set comment="band 44">
        <r>  0.0056  0.0124  0.0150 </r>
        <r>  0.0069  0.0105  0.0000 </r>
        <r>  0.0004  0.0074  0.0000 </r>
       </set>
       <set comment="band 45">
        <r>  0.0005  0.0211  0.0307 </r>
        <r>  0.0005  0.0094  0.0000 </r>
        <r>  0.0002  0.0114  0.0000 </r>
       </set>
       <set comment="band 46">
        <r>  0.0040  0.0177  0.0199 </r>
        <r>  0.0015  0.0047  0.0000 </r>
        <r>  0.0007  0.0074  0.0000 </r>
       </set>
       <set comment="band 47">
        <r>  0.0045  0.0207  0.0166 </r>
        <r>  0.0025  0.0120  0.0000 </r>
        <r>  0.0020  0.0069  0.0000 </r>
       </set>
       <set comment="band 48">
        <r>  0.0107  0.0168  0.0078 </r>
        <r>  0.0009  0.0174  0.0000 </r>
        <r>  0.0010  0.0227  0.0000 </r>
       </set>
      </set>
      <set comment="kpoint 18">
       <set comment="band 1">
        <r>  0.9965  0.0000  0.0000 </r>
        <r>  0.0000  0.0001  0.0000 </r>
        <r>  0.0000  0.0001  0.0000 </r>
       </set>
       <set comment="band 2">
        <r>  0.0000  0.9742  0.0003 </r>
        <r>  0.0012  0.0009  0.0000 </r>
        <r>  0.0012  0.0009  0.0000 </r>
       </set>
       <set comment="band 3">
        <r>  0.0000  0.9825  0.0002 </r>
        <r>  0.0003  0.0006  0.0000 </r>
        <r>  0.0003  0.0006  0.0000 </r>
       </set>
       <set comment="band 4">
        <r>  0.0000  0.9846  0.0000 </r>
        <r>  0.0001  0.0008  0.0000 </r>
        <r>  0.0001  0.0008  0.0000 </r>
       </set>
       <set comment="band 5">
        <r>  0.0046  0.0358  0.0457 </r>
        <r>  0.3096  0.0067  0.0000 </r>
        <r>  0.3365  0.0071  0.0000 </r>
       </set>
       <set comment="band 6">
        <r>  0.0000  0.0013  0.1051 </r>
        <r>  0.3454  0.0046  0.0000 </r>
        <r>  0.3185  0.0042  0.0000 </r>
       </set>
       <set comment="band 7">
        <r>  0.0000  0.0029  0.3153 </r>
        <r>  0.0022  0.1569  0.0000 </r>
        <r>  0.0022  0.1575  0.0000 </r>
       </set>
       <set comment="band 8">
        <r>  0.0783  0.0186  0.1135 </r>
        <r>  0.0009  0.1700  0.0000 </r>
        <r>  0.0009  0.1697  0.0000 </r>
       </set>
       <set comment="band 9">
        <r>  0.0196  0.0291  0.2079 </r>
        <r>  0.0135  0.1598  0.0000 </r>
        <r>  0.0135  0.1602  0.0000 </r>
       </set>
       <set comment="band 10">
        <r>  0.0161  0.0472  0.0953 </r>
        <r>  0.0198  0.1887  0.0000 </r>
        <r>  0.0199  0.1895  0.0000 </r>
       </set>
       <set comment="band 11">
        <r>  0.0000  0.0437  0.1095 </r>
        <r>  0.0034  0.2148  0.0000 </r>
        <r>  0.0034  0.2139  0.0000 </r>
       </set>
       <set comment="band 12">
        <r>  0.0000  0.0157  0.1880 </r>
        <r>  0.0191  0.2213  0.0000 </r>
        <r>  0.0191  0.2209  0.0000 </r>
       </set>
       <set comment="band 13">
        <r>  0.0060  0.0046  0.6188 </r>
        <r>  0.0001  0.0722  0.0000 </r>
        <r>  0.0001  0.0722  0.0000 </r>
       </set>
       <set comment="band 14">
        <r>  0.0290  0.0037  0.7327 </r>
        <r>  0.0000  0.0436  0.0000 </r>
        <r>  0.0000  0.0436  0.0000 </r>
       </set>
       <set comment="band 15">
        <r>  0.0000  0.0011  0.4829 </r>
        <r>  0.0016  0.0726  0.0000 </r>
        <r>  0.0016  0.0726  0.0000 </r>
       </set>
       <set comment="band 16">
        <r>  0.0072  0.0172  0.6611 </r>
        <r>  0.0040  0.0650  0.0000 </r>
        <r>  0.0041  0.0649  0.0000 </r>
       </set>
       <set comment="band 17">
        <r>  0.0000  0.0006  0.5534 </r>
        <r>  0.0282  0.0978  0.0000 </r>
        <r>  0.0282  0.0977  0.0000 </r>
       </set>
       <set comment="band 18">
        <r>  0.1289  0.0590  0.0938 </r>
        <r>  0.0004  0.0120  0.0000 </r>
        <r>  0.0004  0.0120  0.0000 </r>
       </set>
       <set comment="band 19">
        <r>  0.0841  0.0860  0.0505 </r>
        <r>  0.0010  0.0111  0.0000 </r>
        <r>  0.0010  0.0110  0.0000 </r>
       </set>
       <set comment="band 20">
        <r>  0.0000  0.0216  0.0382 </r>
        <r>  0.0002  0.0228  0.0000 </r>
        <r>  0.0002  0.0229  0.0000 </r>
       </set>
       <set comment="band 21">
        <r>  0.0345  0.0367  0.0535 </r>
        <r>  0.0135  0.0108  0.0000 </r>
        <r>  0.0136  0.0109  0.0000 </r>
       </set>
       <set comment="band 22">
        <r>  0.0000  0.0074  0.0263 </r>
        <r>  0.0007  0.0689  0.0000 </r>
        <r>  0.0007  0.0691  0.0000 </r>
       </set>
       <set comment="band 23">
        <r>  0.0000  0.0321  0.0154 </r>
        <r>  0.0011  0.0310  0.0000 </r>
        <r>  0.0011  0.0312  0.0000 </r>
       </set>
       <set comment="band 24">
        <r>  0.0074  0.0129  0.0127 </r>
        <r>  0.0025  0.0062  0.0000 </r>
        <r>  0.0024  0.0062  0.0000 </r>
       </set>
       <set comment="band 25">
        <r>  0.0615  0.0094  0.0583 </r>
        <r>  0.0015  0.0457  0.0000 </r>
        <r>  0.0008  0.0502  0.0000 </r>
       </set>
       <set comment="band 26">
        <r>  0.0001  0.0107  0.0395 </r>
        <r>  0.0001  0.0043  0.0000 </r>
        <r>  0.0002  0.0044  0.0000 </r>
       </set>
       <set comment="band 27">
        <r>  0.0403  0.0166  0.0938 </r>
        <r>  0.0007  0.0405  0.0000 </r>
        <r>  0.0004  0.0394  0.0000 </r>
       </set>
       <set comment="band 28">
        <r>  0.0107  0.0118  0.0097 </r>
        <r>  0.0009  0.0161  0.0000 </r>
        <r>  0.0033  0.0063  0.0000 </r>
       </set>
       <set comment="band 29">
        <r>  0.0029  0.0086  0.0204 </r>
        <r>  0.0020  0.0054  0.0000 </r>
        <r>  0.0003  0.0158  0.0000 </r>
       </set>
       <set comment="band 30">
        <r>  0.0478  0.0058  0.0141 </r>
        <r>  0.0013  0.0275  0.0000 </r>
        <r>  0.0012  0.0285  0.0000 </r>
       </set>
       <set comment="band 31">
        <r>  0.0037  0.0080  0.0206 </r>
        <r>  0.0002  0.0050  0.0000 </r>
        <r>  0.0005  0.0098  0.0000 </r>
       </set>
       <set comment="band 32">
        <r>  0.0026  0.0767  0.0077 </r>
        <r>  0.0007  0.0203  0.0000 </r>
        <r>  0.0009  0.0681  0.0000 </r>
       </set>
       <set comment="band 33">
        <r>  0.0240  0.0034  0.0167 </r>
        <r>  0.0002  0.0283  0.0000 </r>
        <r>  0.0008  0.0172  0.0000 </r>
       </set>
       <set comment="band 34">
        <r>  0.0043  0.0064  0.0145 </r>
        <r>  0.0009  0.0082  0.0000 </r>
        <r>  0.0001  0.0056  0.0000 </r>
       </set>
       <set comment="band 35">
        <r>  0.0010  0.0151  0.0056 </r>
        <r>  0.0013  0.0281  0.0000 </r>
        <r>  0.0012  0.0290  0.0000 </r>
       </set>
       <set comment="band 36">
        <r>  0.0108  0.0216  0.0207 </r>
        <r>  0.0019  0.0186  0.0000 </r>
        <r>  0.0020  0.0141  0.0000 </r>
       </set>
       <set comment="band 37">
        <r>  0.0008  0.0201  0.0162 </r>
        <r>  0.0002  0.0075  0.0000 </r>
        <r>  0.0016  0.0127  0.0000 </r>
       </set>
       <set comment="band 38">
        <r>  0.0080  0.0206  0.0086 </r>
        <r>  0.0010  0.0198  0.0000 </r>
        <r>  0.0003  0.0177  0.0000 </r>
       </set>
       <set comment="band 39">
        <r>  0.0003  0.0115  0.0050 </r>
        <r>  0.0006  0.0011  0.0000 </r>
        <r>  0.0008  0.0119  0.0000 </r>
       </set>
       <set comment="band 40">
        <r>  0.0057  0.0148  0.0259 </r>
        <r>  0.0039  0.0061  0.0000 </r>
        <r>  0.0016  0.0025  0.0000 </r>
       </set>
       <set comment="band 41">
        <r>  0.0047  0.0309  0.0049 </r>
        <r>  0.0019  0.0136  0.0000 </r>
        <r>  0.0034  0.0028  0.0000 </r>
       </set>
       <set comment="band 42">
        <r>  0.0001  0.0116  0.0201 </r>
        <r>  0.0002  0.0040  0.0000 </r>
        <r>  0.0016  0.0072  0.0000 </r>
       </set>
       <set comment="band 43">
        <r>  0.0031  0.0065  0.0141 </r>
        <r>  0.0030  0.0031  0.0000 </r>
        <r>  0.0017  0.0029  0.0000 </r>
       </set>
       <set comment="band 44">
        <r>  0.0003  0.0452  0.0250 </r>
        <r>  0.0035  0.0223  0.0000 </r>
        <r>  0.0057  0.0158  0.0000 </r>
       </set>
       <set comment="band 45">
        <r>  0.0010  0.0041  0.0149 </r>
        <r>  0.0029  0.0068  0.0000 </r>
        <r>  0.0032  0.0049  0.0000 </r>
       </set>
       <set comment="band 46">
        <r>  0.0012  0.0328  0.0310 </r>
        <r>  0.0062  0.0198  0.0000 </r>
        <r>  0.0038  0.0086  0.0000 </r>
       </set>
       <set comment="band 47">
        <r>  0.0054  0.0288  0.0269 </r>
        <r>  0.0044  0.0062  0.0000 </r>
        <r>  0.0017  0.0173  0.0000 </r>
       </set>
       <set comment="band 48">
        <r>  0.0034  0.0142  0.0292 </r>
        <r>  0.0078  0.0130  0.0000 </r>
        <r>  0.0095  0.0042  0.0000 </r>
       </set>
      </set>
      <set comment="kpoint 19">
       <set comment="band 1">
        <r>  0.9965  0.0000  0.0000 </r>
        <r>  0.0000  0.0001  0.0000 </r>
        <r>  0.0000  0.0001  0.0000 </r>
       </set>
       <set comment="band 2">
        <r>  0.0000  0.9753  0.0005 </r>
        <r>  0.0015  0.0009  0.0000 </r>
        <r>  0.0015  0.0009  0.0000 </r>
       </set>
       <set comment="band 3">
        <r>  0.0000  0.9804  0.0001 </r>
        <r>  0.0000  0.0006  0.0000 </r>
        <r>  0.0000  0.0006  0.0000 </r>
       </set>
       <set comment="band 4">
        <r>  0.0000  0.9849  0.0000 </r>
        <r>  0.0000  0.0008  0.0000 </r>
        <r>  0.0000  0.0008  0.0000 </r>
       </set>
       <set comment="band 5">
        <r>  0.0000  0.0001  0.1077 </r>
        <r>  0.3060  0.0039  0.0000 </r>
        <r>  0.3623  0.0048  0.0000 </r>
       </set>
       <set comment="band 6">
        <r>  0.0000  0.0376  0.0483 </r>
        <r>  0.3541  0.0071  0.0000 </r>
        <r>  0.2979  0.0062  0.0000 </r>
       </set>
       <set comment="band 7">
        <r>  0.0000  0.0000  0.3322 </r>
        <r>  0.0000  0.1541  0.0000 </r>
        <r>  0.0000  0.1543  0.0000 </r>
       </set>
       <set comment="band 8">
        <r>  0.1150  0.0000  0.1233 </r>
        <r>  0.0000  0.1799  0.0000 </r>
        <r>  0.0000  0.1802  0.0000 </r>
       </set>
       <set comment="band 9">
        <r>  0.0000  0.0636  0.0703 </r>
        <r>  0.0000  0.1660  0.0000 </r>
        <r>  0.0000  0.1658  0.0000 </r>
       </set>
       <set comment="band 10">
        <r>  0.0000  0.0325  0.2082 </r>
        <r>  0.0332  0.1747  0.0000 </r>
        <r>  0.0332  0.1751  0.0000 </r>
       </set>
       <set comment="band 11">
        <r>  0.0000  0.0645  0.0000 </r>
        <r>  0.0000  0.2333  0.0000 </r>
        <r>  0.0000  0.2329  0.0000 </r>
       </set>
       <set comment="band 12">
        <r>  0.0000  0.0000  0.2677 </r>
        <r>  0.0244  0.2054  0.0000 </r>
        <r>  0.0243  0.2050  0.0000 </r>
       </set>
       <set comment="band 13">
        <r>  0.0000  0.0031  0.6544 </r>
        <r>  0.0000  0.0655  0.0000 </r>
        <r>  0.0000  0.0655  0.0000 </r>
       </set>
       <set comment="band 14">
        <r>  0.0467  0.0000  0.7343 </r>
        <r>  0.0000  0.0348  0.0000 </r>
        <r>  0.0000  0.0348  0.0000 </r>
       </set>
       <set comment="band 15">
        <r>  0.0000  0.0000  0.4806 </r>
        <r>  0.0000  0.0681  0.0000 </r>
        <r>  0.0000  0.0680  0.0000 </r>
       </set>
       <set comment="band 16">
        <r>  0.0000  0.0171  0.6259 </r>
        <r>  0.0048  0.0847  0.0000 </r>
        <r>  0.0048  0.0847  0.0000 </r>
       </set>
       <set comment="band 17">
        <r>  0.0000  0.0000  0.5910 </r>
        <r>  0.0294  0.1006  0.0000 </r>
        <r>  0.0294  0.1005  0.0000 </r>
       </set>
       <set comment="band 18">
        <r>  0.0000  0.1417  0.1284 </r>
        <r>  0.0000  0.0011  0.0000 </r>
        <r>  0.0000  0.0011  0.0000 </r>
       </set>
       <set comment="band 19">
        <r>  0.2284  0.0000  0.0307 </r>
        <r>  0.0000  0.0083  0.0000 </r>
        <r>  0.0000  0.0082  0.0000 </r>
       </set>
       <set comment="band 20">
        <r>  0.0000  0.0356  0.0000 </r>
        <r>  0.0000  0.0202  0.0000 </r>
        <r>  0.0000  0.0203  0.0000 </r>
       </set>
       <set comment="band 21">
        <r>  0.0000  0.0607  0.0905 </r>
        <r>  0.0137  0.0006  0.0000 </r>
        <r>  0.0138  0.0006  0.0000 </r>
       </set>
       <set comment="band 22">
        <r>  0.0000  0.0000  0.1058 </r>
        <r>  0.0000  0.0303  0.0000 </r>
        <r>  0.0000  0.0306  0.0000 </r>
       </set>
       <set comment="band 23">
        <r>  0.0000  0.0000  0.0054 </r>
        <r>  0.0000  0.0783  0.0000 </r>
        <r>  0.0000  0.0794  0.0000 </r>
       </set>
       <set comment="band 24">
        <r>  0.0000  0.0293  0.0855 </r>
        <r>  0.0000  0.0520  0.0000 </r>
        <r>  0.0000  0.0507  0.0000 </r>
       </set>
       <set comment="band 25">
        <r>  0.0012  0.0006  0.0036 </r>
        <r>  0.0021  0.0188  0.0000 </r>
        <r>  0.0024  0.0200  0.0000 </r>
       </set>
       <set comment="band 26">
        <r>  0.0837  0.0003  0.0006 </r>
        <r>  0.0000  0.0306  0.0000 </r>
        <r>  0.0000  0.0275  0.0000 </r>
       </set>
       <set comment="band 27">
        <r>  0.0007  0.0064  0.0073 </r>
        <r>  0.0005  0.0032  0.0000 </r>
        <r>  0.0004  0.0045  0.0000 </r>
       </set>
       <set comment="band 28">
        <r>  0.0005  0.0011  0.0211 </r>
        <r>  0.0000  0.0179  0.0000 </r>
        <r>  0.0001  0.0158  0.0000 </r>
       </set>
       <set comment="band 29">
        <r>  0.0012  0.0009  0.0024 </r>
        <r>  0.0000  0.0105  0.0000 </r>
        <r>  0.0000  0.0107  0.0000 </r>
       </set>
       <set comment="band 30">
        <r>  0.0885  0.0011  0.0032 </r>
        <r>  0.0001  0.0390  0.0000 </r>
        <r>  0.0000  0.0324  0.0000 </r>
       </set>
       <set comment="band 31">
        <r>  0.0004  0.0028  0.0293 </r>
        <r>  0.0000  0.0097  0.0000 </r>
        <r>  0.0001  0.0087  0.0000 </r>
       </set>
       <set comment="band 32">
        <r>  0.0002  0.0178  0.0123 </r>
        <r>  0.0004  0.0153  0.0000 </r>
        <r>  0.0001  0.0181  0.0000 </r>
       </set>
       <set comment="band 33">
        <r>  0.0002  0.0075  0.0272 </r>
        <r>  0.0000  0.0266  0.0000 </r>
        <r>  0.0001  0.0250  0.0000 </r>
       </set>
       <set comment="band 34">
        <r>  0.0044  0.0125  0.0043 </r>
        <r>  0.0009  0.0098  0.0000 </r>
        <r>  0.0015  0.0175  0.0000 </r>
       </set>
       <set comment="band 35">
        <r>  0.0307  0.0540  0.0238 </r>
        <r>  0.0020  0.0492  0.0000 </r>
        <r>  0.0001  0.0236  0.0000 </r>
       </set>
       <set comment="band 36">
        <r>  0.0405  0.0257  0.0115 </r>
        <r>  0.0006  0.0222  0.0000 </r>
        <r>  0.0002  0.0448  0.0000 </r>
       </set>
       <set comment="band 37">
        <r>  0.0011  0.0431  0.0048 </r>
        <r>  0.0002  0.0037  0.0000 </r>
        <r>  0.0003  0.0077  0.0000 </r>
       </set>
       <set comment="band 38">
        <r>  0.0007  0.0156  0.0259 </r>
        <r>  0.0002  0.0037  0.0000 </r>
        <r>  0.0001  0.0100  0.0000 </r>
       </set>
       <set comment="band 39">
        <r>  0.0009  0.0150  0.0229 </r>
        <r>  0.0001  0.0075  0.0000 </r>
        <r>  0.0004  0.0017  0.0000 </r>
       </set>
       <set comment="band 40">
        <r>  0.0021  0.0116  0.0290 </r>
        <r>  0.0007  0.0100  0.0000 </r>
        <r>  0.0003  0.0090  0.0000 </r>
       </set>
       <set comment="band 41">
        <r>  0.0016  0.0089  0.0264 </r>
        <r>  0.0025  0.0077  0.0000 </r>
        <r>  0.0010  0.0060  0.0000 </r>
       </set>
       <set comment="band 42">
        <r>  0.0002  0.0039  0.0027 </r>
        <r>  0.0035  0.0079  0.0000 </r>
        <r>  0.0011  0.0075  0.0000 </r>
       </set>
       <set comment="band 43">
        <r>  0.0001  0.0286  0.0063 </r>
        <r>  0.0025  0.0034  0.0000 </r>
        <r>  0.0028  0.0053  0.0000 </r>
       </set>
       <set comment="band 44">
        <r>  0.0018  0.0205  0.0424 </r>
        <r>  0.0023  0.0056  0.0000 </r>
        <r>  0.0032  0.0037  0.0000 </r>
       </set>
       <set comment="band 45">
        <r>  0.0020  0.0303  0.0374 </r>
        <r>  0.0082  0.0065  0.0000 </r>
        <r>  0.0092  0.0077  0.0000 </r>
       </set>
       <set comment="band 46">
        <r>  0.0016  0.0426  0.0224 </r>
        <r>  0.0118  0.0064  0.0000 </r>
        <r>  0.0218  0.0033  0.0000 </r>
       </set>
       <set comment="band 47">
        <r>  0.0005  0.0424  0.0079 </r>
        <r>  0.0018  0.0231  0.0000 </r>
        <r>  0.0051  0.0201  0.0000 </r>
       </set>
       <set comment="band 48">
        <r>  0.0005  0.0225  0.0215 </r>
        <r>  0.0012  0.0054  0.0000 </r>
        <r>  0.0071  0.0101  0.0000 </r>
       </set>
      </set>
     </set>
    </set>
   </array>
  </projected>
 </calculation>
 <structure name="finalpos" >
  <crystal>
   <varray name="basis" >
    <v>       3.12309194       0.00000000       0.00000000 </v>
    <v>      -1.56154597       2.70467696       0.00000000 </v>
    <v>       0.00000000       0.00000000      19.10880527 </v>
   </varray>
   <i name="volume">    161.41121412 </i>
   <varray name="rec_basis" >
    <v>       0.32019551       0.18486496       0.00000000 </v>
    <v>       0.00000000       0.36972992       0.00000000 </v>
    <v>       0.00000000       0.00000000       0.05233190 </v>
   </varray>
  </crystal>
  <varray name="positions" >
   <v>       0.33333334       0.66666669       0.08134579 </v>
   <v>       0.66666663       0.33333331       0.16259015 </v>
   <v>       0.66666663       0.33333331       0.00009952 </v>
  </varray>
 </structure>
</modeling>
