 vasp.5.4.1 05Feb16 (build Oct 07 2016 17:49:55) complex                        
  
 executed on        GRP7IFC17AVX2 date 2017.06.06  04:51:33
 running on  120 total cores
 distrk:  each k-point on   20 cores,    6 groups
 distr:  one band on NCORES_PER_BAND=  20 cores,    1 groups


--------------------------------------------------------------------------------------------------------


 INCAR:
 POTCAR:    PAW_PBE C 08Apr2002                   

 ----------------------------------------------------------------------------- 
|                                                                             |
|           W    W    AA    RRRRR   N    N  II  N    N   GGGG   !!!           |
|           W    W   A  A   R    R  NN   N  II  NN   N  G    G  !!!           |
|           W    W  A    A  R    R  N N  N  II  N N  N  G       !!!           |
|           W WW W  AAAAAA  RRRRR   N  N N  II  N  N N  G  GGG   !            |
|           WW  WW  A    A  R   R   N   NN  II  N   NN  G    G                |
|           W    W  A    A  R    R  N    N  II  N    N   GGGG   !!!           |
|                                                                             |
|      You have enabled k-point parallelism (KPAR>1).                         |
|      This developmental code was originally  written by Paul Kent at ORNL,  |
|      and carefully double checked in Vienna.                                |
|      GW as well as linear response parallelism added by Martijn Marsman     |
|      and Georg Kresse.                                                      |
|      Carefully verify results versus KPAR=1.                                |
|      Report problems to Paul Kent and Vienna.                               |
|                                                                             |
 ----------------------------------------------------------------------------- 

 POTCAR:    PAW_PBE C 08Apr2002                   
   VRHFIN =C: s2p2                                                              
   LEXCH  = PE                                                                  
   EATOM  =   147.1560 eV,   10.8157 Ry                                         
                                                                                
   TITEL  = PAW_PBE C 08Apr2002                                                 
   LULTRA =        F    use ultrasoft PP ?                                      
   IUNSCR =        1    unscreen: 0-lin 1-nonlin 2-no                           
   RPACOR =    1.200    partial core radius                                     
   POMASS =   12.011; ZVAL   =    4.000    mass and valenz                      
   RCORE  =    1.500    outmost cutoff radius                                   
   RWIGS  =    1.630; RWIGS  =    0.863    wigner-seitz radius (au A)           
   ENMAX  =  400.000; ENMIN  =  300.000 eV                                      
   ICORE  =        2    local potential                                         
   LCOR   =        T    correct aug charges                                     
   LPAW   =        T    paw PP                                                  
   EAUG   =  644.873                                                            
   DEXC   =    0.000                                                            
   RMAX   =    1.529    core radius for proj-oper                               
   RAUG   =    1.300    factor for augmentation sphere                          
   RDEP   =    1.501    radius for radial grids                                 
   RDEPT  =    1.300    core radius for aug-charge                              
                                                                                
   Atomic configuration                                                         
    4 entries                                                                   
     n  l   j            E        occ.                                          
     1  0  0.50      -273.3789   2.0000                                         
     2  0  0.50       -13.7508   2.0000                                         
     2  1  0.50        -5.2854   2.0000                                         
     3  2  1.50        -5.4423   0.0000                                         
   Description                                                                  
     l       E           TYP  RCUT    TYP  RCUT                                 
     0    -13.7508458     23  1.200                                             
     0     -8.2022199     23  1.200                                             
     1     -5.2854383     23  1.500                                             
     1     34.0145650     23  1.500                                             
     2     -5.4423304      7  1.500                                             
  local pseudopotential read in
  partial core-charges read in
  partial kinetic energy density read in
  atomic valenz-charges read in
  non local Contribution for L=           0  read in
    real space projection operators read in
  non local Contribution for L=           0  read in
    real space projection operators read in
  non local Contribution for L=           1  read in
    real space projection operators read in
  non local Contribution for L=           1  read in
    real space projection operators read in
    PAW grid and wavefunctions read in
 
   number of l-projection  operators is LMAX  =           4
   number of lm-projection operators is LMMAX =           8
 
  PAW_PBE C 08Apr2002                   :
 energy of atom  1       EATOM= -147.1560
 kinetic energy error for atom=    0.0288 (will be added to EATOM!!)
 
 
 POSCAR: Graphene_r3_r3                          
  positions in direct lattice
  No initial velocities read in
 exchange correlation table for  LEXCH =        8
   RHO(1)=    0.500       N(1)  =     2000
   RHO(2)=  100.500       N(2)  =     4000
 


--------------------------------------------------------------------------------------------------------


 ion  position               nearest neighbor table
   1  0.000  0.000  0.000-   3 1.42   2 1.42   6 1.42
   2  0.000  0.333  0.000-   5 1.42   4 1.42   1 1.42
   3  0.333  0.000  0.000-   1 1.42   5 1.42   4 1.42
   4  0.333  0.667  0.000-   6 1.42   2 1.42   3 1.42
   5  0.667  0.333  0.000-   2 1.42   6 1.42   3 1.42
   6  0.667  0.667  0.000-   4 1.42   5 1.42   1 1.42
 

IMPORTANT INFORMATION: All symmetrisations will be switched off!
NOSYMM: (Re-)initialisation of all symmetry stuff for point group C_1.

 
 
 KPOINTS: hex                                     
  interpolating k-points between supplied coordinates
  k-points in reciprocal lattice
Space group operators:
 irot       det(A)        alpha          n_x          n_y          n_z        tau_x        tau_y        tau_z
    1     1.000000     0.000000     1.000000     0.000000     0.000000     0.000000     0.000000     0.000000


--------------------------------------------------------------------------------------------------------




 Dimension of arrays:
   k-points           NKPTS =     80   k-points in BZ     NKDIM =     80   number of bands    NBANDS=     38
   number of dos      NEDOS =    301   number of ions     NIONS =      6
   non local maximal  LDIM  =      4   non local SUM 2l+1 LMDIM =      8
   total plane-waves  NPLWV = 109760
   max r-space proj   IRMAX =      1   max aug-charges    IRDMAX=  33046
   dimension x,y,z NGX =    28 NGY =   28 NGZ =  140
   dimension x,y,z NGXF=    56 NGYF=   56 NGZF=  280
   support grid    NGXF=   112 NGYF=  112 NGZF=  560
   ions per type =               6
 NGX,Y,Z   is equivalent  to a cutoff of  10.91, 10.91, 11.64 a.u.
 NGXF,Y,Z  is equivalent  to a cutoff of  21.82, 21.82, 23.27 a.u.


 I would recommend the setting:
   dimension x,y,z NGX =    28 NGY =   28 NGZ =  130
 SYSTEM =  unknown system                          
 POSCAR =  Graphene_r3_r3                          

 Startparameter for this run:
   NWRITE =      2    write-flag & timer
   PREC   = accura    normal or accurate (medium, high low for compatibility)
   ISTART =      0    job   : 0-new  1-cont  2-samecut
   ICHARG =     11    charge: 1-file 2-atom 10-const
   ISPIN  =      1    spin polarized calculation?
   LNONCOLLINEAR =      T non collinear calculations
   LSORBIT =      T    spin-orbit coupling
   INIWAV =      1    electr: 0-lowe 1-rand  2-diag
   LASPH  =      T    aspherical Exc in radial PAW
   METAGGA=      F    non-selfconsistent MetaGGA calc.

 Electronic Relaxation 1
   ENCUT  =  400.0 eV  29.40 Ry    5.42 a.u.   6.96  6.96 32.61*2*pi/ulx,y,z
   ENINI  =  400.0     initial cutoff
   ENAUG  =  644.9 eV  augmentation charge cutoff
   NELM   =    200;   NELMIN= 10; NELMDL=  0     # of ELM steps 
   EDIFF  = 0.1E-04   stopping-criterion for ELM
   LREAL  =      F    real-space projection
   NLSPLINE    = F    spline interpolate recip. space projectors
   LCOMPAT=      F    compatible to vasp.4.4
   GGA_COMPAT  = F    GGA compatible to vasp.4.4-vasp.4.6
   LMAXPAW     = -100 max onsite density
   LMAXMIX     =    2 max onsite mixed and CHGCAR
   VOSKOWN=      0    Vosko Wilk Nusair interpolation
   ROPT   =    0.00000
 Ionic relaxation
   EDIFFG = 0.1E-03   stopping-criterion for IOM
   NSW    =      0    number of steps for IOM
   NBLOCK =      1;   KBLOCK =      1    inner block; outer block 
   IBRION =     -1    ionic relax: 0-MD 1-quasi-New 2-CG
   NFREE  =      0    steps in history (QN), initial steepest desc. (CG)
   ISIF   =      2    stress and relaxation
   IWAVPR =     10    prediction:  0-non 1-charg 2-wave 3-comb
   ISYM   =     -1    0-nonsym 1-usesym 2-fastsym
   LCORR  =      T    Harris-Foulkes like correction to forces

   POTIM  = 0.5000    time-step for ionic-motion
   TEIN   =    0.0    initial temperature
   TEBEG  =    0.0;   TEEND  =   0.0 temperature during run
   SMASS  =  -3.00    Nose mass-parameter (am)
   estimated Nose-frequenzy (Omega)   =  0.10E-29 period in steps =****** mass=  -0.416E-27a.u.
   SCALEE = 1.0000    scale energy and forces
   NPACO  =    256;   APACO  = 16.0  distance and # of slots for P.C.
   PSTRESS=    0.0 pullay stress

  Mass of Ions in am
   POMASS =  12.01
  Ionic Valenz
   ZVAL   =   4.00
  Atomic Wigner-Seitz radii
   RWIGS  =  -1.00
  virtual crystal weights 
   VCA    =   1.00
   NELECT =      24.0000    total number of electrons
   NUPDOWN=      -1.0000    fix difference up-down

 DOS related values:
   EMIN   =  10.00;   EMAX   =-10.00  energy-range for DOS
   EFERMI =   0.00
   ISMEAR =     0;   SIGMA  =   0.01  broadening in eV -4-tet -1-fermi 0-gaus

 Electronic relaxation 2 (details)
   IALGO  =     38    algorithm
   LDIAG  =      T    sub-space diagonalisation (order eigenvalues)
   LSUBROT=      F    optimize rotation matrix (better conditioning)
   TURBO    =      0    0=normal 1=particle mesh
   IRESTART =      0    0=no restart 2=restart with 2 vectors
   NREBOOT  =      0    no. of reboots
   NMIN     =      0    reboot dimension
   EREF     =   0.00    reference energy to select bands
   IMIX   =      4    mixing-type and parameters
     AMIX     =   0.40;   BMIX     =  1.00
     AMIX_MAG =   1.60;   BMIX_MAG =  1.00
     AMIN     =   0.01
     WC   =   100.;   INIMIX=   1;  MIXPRE=   1;  MAXMIX= -45

 Intra band minimization:
   WEIMIN = 0.0000     energy-eigenvalue tresh-hold
   EBREAK =  0.66E-07  absolut break condition
   DEPER  =   0.30     relativ break condition  

   TIME   =   0.40     timestep for ELM

  volume/ion in A,a.u.               =      52.57       354.78
  Fermi-wavevector in a.u.,A,eV,Ry     =   0.693705  1.310912  6.547480  0.481226
  Thomas-Fermi vector in A             =   1.775993
 
 Write flags
   LWAVE  =      F    write WAVECAR
   LCHARG =      F    write CHGCAR
   LVTOT  =      F    write LOCPOT, total local potential
   LVHAR  =      F    write LOCPOT, Hartree potential only
   LELF   =      F    write electronic localiz. function (ELF)
   LORBIT =     10    0 simple, 1 ext, 2 COOP (PROOUT)


 Dipole corrections
   LMONO  =      F    monopole corrections only (constant potential shift)
   LDIPOL =      F    correct potential (dipole corrections)
   IDIPOL =      0    1-x, 2-y, 3-z, 4-all directions 
   EPSILON=  1.0000000 bulk dielectric constant

 Exchange correlation treatment:
   GGA     =    --    GGA type
   LEXCH   =     8    internal setting for exchange type
   VOSKOWN=      0    Vosko Wilk Nusair interpolation
   LHFCALC =     F    Hartree Fock is set to
   LHFONE  =     F    Hartree Fock one center treatment
   AEXX    =    0.0000 exact exchange contribution

 Linear response parameters
   LEPSILON=     F    determine dielectric tensor
   LRPA    =     F    only Hartree local field effects (RPA)
   LNABLA  =     F    use nabla operator in PAW spheres
   LVEL    =     F    velocity operator in full k-point grid
   LINTERFAST=   F  fast interpolation
   KINTER  =     0    interpolate to denser k-point grid
   CSHIFT  =0.1000    complex shift for real part using Kramers Kronig
   OMEGAMAX=  -1.0    maximum frequency
   DEG_THRESHOLD= 0.2000000E-02 threshold for treating states as degnerate
   RTIME   =    0.100 relaxation time in fs

 Orbital magnetization related:
   ORBITALMAG=     F  switch on orbital magnetization
   LCHIMAG   =     F  perturbation theory with respect to B field
   DQ        =  0.001000  dq finite difference perturbation B field



--------------------------------------------------------------------------------------------------------


 Static calculation
 charge density and potential remain constant during run
 non collinear spin polarized calculation
 Variant of blocked Davidson
 Davidson routine will perform the subspace rotation
 perform sub-space diagonalisation
    after iterative eigenvector-optimisation
 no mixing
 using additional bands           26
 reciprocal scheme for non local part
 use partial core corrections
 calculate Harris-corrections to forces 
   (improved forces if not selfconsistent)
 use gradient corrections 
 WARNING: stress and forces are not correct
  (second derivative of E(xc) not defined)
 use of overlap-Matrix (Vanderbilt PP)
 Gauss-broadening in eV      SIGMA  =   0.01


--------------------------------------------------------------------------------------------------------


  energy-cutoff  :      400.00
  volume of cell :      315.44
      direct lattice vectors                 reciprocal lattice vectors
     4.267520463  0.000000000  0.000000000     0.234328109  0.135289397  0.000000000
    -2.133760231  3.695781132  0.000000000     0.000000000  0.270578794  0.000000000
     0.000000000  0.000000000 20.000000000     0.000000000  0.000000000  0.050000000

  length of vectors
     4.267520463  4.267520463 20.000000000     0.270578794  0.270578794  0.050000000


 
 k-points in units of 2pi/SCALE and weight: hex                                     
   0.11716405  0.06764470  0.00000000       0.013
   0.11415985  0.06591022  0.00000000       0.013
   0.11115564  0.06417574  0.00000000       0.013
   0.10815143  0.06244126  0.00000000       0.013
   0.10514723  0.06070678  0.00000000       0.013
   0.10214302  0.05897230  0.00000000       0.013
   0.09913882  0.05723782  0.00000000       0.013
   0.09613461  0.05550334  0.00000000       0.013
   0.09313040  0.05376886  0.00000000       0.013
   0.09012620  0.05203438  0.00000000       0.013
   0.08712199  0.05029990  0.00000000       0.013
   0.08411778  0.04856542  0.00000000       0.013
   0.08111358  0.04683095  0.00000000       0.013
   0.07810937  0.04509647  0.00000000       0.013
   0.07510516  0.04336199  0.00000000       0.013
   0.07210096  0.04162751  0.00000000       0.013
   0.06909675  0.03989303  0.00000000       0.013
   0.06609254  0.03815855  0.00000000       0.013
   0.06308834  0.03642407  0.00000000       0.013
   0.06008413  0.03468959  0.00000000       0.013
   0.05707992  0.03295511  0.00000000       0.013
   0.05407572  0.03122063  0.00000000       0.013
   0.05107151  0.02948615  0.00000000       0.013
   0.04806730  0.02775167  0.00000000       0.013
   0.04506310  0.02601719  0.00000000       0.013
   0.04205889  0.02428271  0.00000000       0.013
   0.03905468  0.02254823  0.00000000       0.013
   0.03605048  0.02081375  0.00000000       0.013
   0.03304627  0.01907927  0.00000000       0.013
   0.03004207  0.01734479  0.00000000       0.013
   0.02703786  0.01561032  0.00000000       0.013
   0.02403365  0.01387584  0.00000000       0.013
   0.02102945  0.01214136  0.00000000       0.013
   0.01802524  0.01040688  0.00000000       0.013
   0.01502103  0.00867240  0.00000000       0.013
   0.01201683  0.00693792  0.00000000       0.013
   0.00901262  0.00520344  0.00000000       0.013
   0.00600841  0.00346896  0.00000000       0.013
   0.00300421  0.00173448  0.00000000       0.013
   0.00000000  0.00000000  0.00000000       0.013
   0.00000000  0.00000000  0.00000000       0.013
   0.00200280  0.00346896  0.00000000       0.013
   0.00400560  0.00693791  0.00000000       0.013
   0.00600841  0.01040687  0.00000000       0.013
   0.00801121  0.01387582  0.00000000       0.013
   0.01001401  0.01734478  0.00000000       0.013
   0.01201681  0.02081373  0.00000000       0.013
   0.01401962  0.02428269  0.00000000       0.013
   0.01602242  0.02775164  0.00000000       0.013
   0.01802522  0.03122060  0.00000000       0.013
   0.02002802  0.03468955  0.00000000       0.013
   0.02203083  0.03815851  0.00000000       0.013
   0.02403363  0.04162747  0.00000000       0.013
   0.02603643  0.04509642  0.00000000       0.013
   0.02803923  0.04856538  0.00000000       0.013
   0.03004204  0.05203433  0.00000000       0.013
   0.03204484  0.05550329  0.00000000       0.013
   0.03404764  0.05897224  0.00000000       0.013
   0.03605044  0.06244120  0.00000000       0.013
   0.03805324  0.06591015  0.00000000       0.013
   0.04005605  0.06937911  0.00000000       0.013
   0.04205885  0.07284806  0.00000000       0.013
   0.04406165  0.07631702  0.00000000       0.013
   0.04606445  0.07978597  0.00000000       0.013
   0.04806726  0.08325493  0.00000000       0.013
   0.05007006  0.08672389  0.00000000       0.013
   0.05207286  0.09019284  0.00000000       0.013
   0.05407566  0.09366180  0.00000000       0.013
   0.05607847  0.09713075  0.00000000       0.013
   0.05808127  0.10059971  0.00000000       0.013
   0.06008407  0.10406866  0.00000000       0.013
   0.06208687  0.10753762  0.00000000       0.013
   0.06408968  0.11100657  0.00000000       0.013
   0.06609248  0.11447553  0.00000000       0.013
   0.06809528  0.11794448  0.00000000       0.013
   0.07009808  0.12141344  0.00000000       0.013
   0.07210088  0.12488240  0.00000000       0.013
   0.07410369  0.12835135  0.00000000       0.013
   0.07610649  0.13182031  0.00000000       0.013
   0.07810929  0.13528926  0.00000000       0.013
 
 k-points in reciprocal lattice and weights: hex                                     
   0.50000000  0.00000000  0.00000000       0.013
   0.48717949  0.00000000  0.00000000       0.013
   0.47435897  0.00000000  0.00000000       0.013
   0.46153846  0.00000000  0.00000000       0.013
   0.44871795  0.00000000  0.00000000       0.013
   0.43589744  0.00000000  0.00000000       0.013
   0.42307692  0.00000000  0.00000000       0.013
   0.41025641  0.00000000  0.00000000       0.013
   0.39743590  0.00000000  0.00000000       0.013
   0.38461538  0.00000000  0.00000000       0.013
   0.37179487  0.00000000  0.00000000       0.013
   0.35897436  0.00000000  0.00000000       0.013
   0.34615385  0.00000000  0.00000000       0.013
   0.33333333  0.00000000  0.00000000       0.013
   0.32051282  0.00000000  0.00000000       0.013
   0.30769231  0.00000000  0.00000000       0.013
   0.29487179  0.00000000  0.00000000       0.013
   0.28205128  0.00000000  0.00000000       0.013
   0.26923077  0.00000000  0.00000000       0.013
   0.25641026  0.00000000  0.00000000       0.013
   0.24358974  0.00000000  0.00000000       0.013
   0.23076923  0.00000000  0.00000000       0.013
   0.21794872  0.00000000  0.00000000       0.013
   0.20512821  0.00000000  0.00000000       0.013
   0.19230769  0.00000000  0.00000000       0.013
   0.17948718  0.00000000  0.00000000       0.013
   0.16666667  0.00000000  0.00000000       0.013
   0.15384615  0.00000000  0.00000000       0.013
   0.14102564  0.00000000  0.00000000       0.013
   0.12820513  0.00000000  0.00000000       0.013
   0.11538462  0.00000000  0.00000000       0.013
   0.10256410  0.00000000  0.00000000       0.013
   0.08974359  0.00000000  0.00000000       0.013
   0.07692308  0.00000000  0.00000000       0.013
   0.06410256  0.00000000  0.00000000       0.013
   0.05128205  0.00000000  0.00000000       0.013
   0.03846154  0.00000000  0.00000000       0.013
   0.02564103  0.00000000  0.00000000       0.013
   0.01282051  0.00000000  0.00000000       0.013
   0.00000000  0.00000000  0.00000000       0.013
   0.00000000  0.00000000  0.00000000       0.013
   0.00854700  0.00854700  0.00000000       0.013
   0.01709400  0.01709400  0.00000000       0.013
   0.02564100  0.02564100  0.00000000       0.013
   0.03418800  0.03418800  0.00000000       0.013
   0.04273500  0.04273500  0.00000000       0.013
   0.05128200  0.05128200  0.00000000       0.013
   0.05982900  0.05982900  0.00000000       0.013
   0.06837600  0.06837600  0.00000000       0.013
   0.07692300  0.07692300  0.00000000       0.013
   0.08547000  0.08547000  0.00000000       0.013
   0.09401700  0.09401700  0.00000000       0.013
   0.10256400  0.10256400  0.00000000       0.013
   0.11111100  0.11111100  0.00000000       0.013
   0.11965800  0.11965800  0.00000000       0.013
   0.12820500  0.12820500  0.00000000       0.013
   0.13675200  0.13675200  0.00000000       0.013
   0.14529900  0.14529900  0.00000000       0.013
   0.15384600  0.15384600  0.00000000       0.013
   0.16239300  0.16239300  0.00000000       0.013
   0.17094000  0.17094000  0.00000000       0.013
   0.17948700  0.17948700  0.00000000       0.013
   0.18803400  0.18803400  0.00000000       0.013
   0.19658100  0.19658100  0.00000000       0.013
   0.20512800  0.20512800  0.00000000       0.013
   0.21367500  0.21367500  0.00000000       0.013
   0.22222200  0.22222200  0.00000000       0.013
   0.23076900  0.23076900  0.00000000       0.013
   0.23931600  0.23931600  0.00000000       0.013
   0.24786300  0.24786300  0.00000000       0.013
   0.25641000  0.25641000  0.00000000       0.013
   0.26495700  0.26495700  0.00000000       0.013
   0.27350400  0.27350400  0.00000000       0.013
   0.28205100  0.28205100  0.00000000       0.013
   0.29059800  0.29059800  0.00000000       0.013
   0.29914500  0.29914500  0.00000000       0.013
   0.30769200  0.30769200  0.00000000       0.013
   0.31623900  0.31623900  0.00000000       0.013
   0.32478600  0.32478600  0.00000000       0.013
   0.33333300  0.33333300  0.00000000       0.013
 
 position of ions in fractional coordinates (direct lattice) 
   0.00000000  0.00000000  0.00000000
   0.00000000  0.33333333  0.00000000
   0.33333333  0.00000000  0.00000000
   0.33333333  0.66666667  0.00000000
   0.66666667  0.33333333  0.00000000
   0.66666667  0.66666667  0.00000000
 
 position of ions in cartesian coordinates  (Angst):
   0.00000000  0.00000000  0.00000000
  -0.71125341  1.23192704  0.00000000
   1.42250682  0.00000000  0.00000000
   0.00000000  2.46385409  0.00000000
   2.13376023  1.23192704  0.00000000
   1.42250682  2.46385409  0.00000000
 
 Euler angles ALPHA=     0.0000000  BETA=     0.0000000

 transformation matrix from SAXIS to cartesian coordinates
 ---------------------------------------------------------
     1.0000000 m_x     0.0000000 m_y     0.0000000 m_z
     0.0000000 m_x     1.0000000 m_y     0.0000000 m_z
     0.0000000 m_x     0.0000000 m_y     1.0000000 m_z

 transformation matrix from cartesian coordinates to SAXIS
 ---------------------------------------------------------
     1.0000000 m_x     0.0000000 m_y     0.0000000 m_z
     0.0000000 m_x     1.0000000 m_y     0.0000000 m_z
     0.0000000 m_x     0.0000000 m_y     1.0000000 m_z




--------------------------------------------------------------------------------------------------------


 k-point  1 :   0.5000 0.0000 0.0000  plane waves:   11436
 k-point  2 :   0.4872 0.0000 0.0000  plane waves:   11460
 k-point  3 :   0.4744 0.0000 0.0000  plane waves:   11460
 k-point  4 :   0.4615 0.0000 0.0000  plane waves:   11492
 k-point  5 :   0.4487 0.0000 0.0000  plane waves:   11512
 k-point  6 :   0.4359 0.0000 0.0000  plane waves:   11508
 k-point  7 :   0.4231 0.0000 0.0000  plane waves:   11516
 k-point  8 :   0.4103 0.0000 0.0000  plane waves:   11508
 k-point  9 :   0.3974 0.0000 0.0000  plane waves:   11524
 k-point 10 :   0.3846 0.0000 0.0000  plane waves:   11508
 k-point 11 :   0.3718 0.0000 0.0000  plane waves:   11496
 k-point 12 :   0.3590 0.0000 0.0000  plane waves:   11512
 k-point 13 :   0.3462 0.0000 0.0000  plane waves:   11484
 k-point 14 :   0.3333 0.0000 0.0000  plane waves:   11460
 k-point 15 :   0.3205 0.0000 0.0000  plane waves:   11456
 k-point 16 :   0.3077 0.0000 0.0000  plane waves:   11436
 k-point 17 :   0.2949 0.0000 0.0000  plane waves:   11412
 k-point 18 :   0.2821 0.0000 0.0000  plane waves:   11412
 k-point 19 :   0.2692 0.0000 0.0000  plane waves:   11448
 k-point 20 :   0.2564 0.0000 0.0000  plane waves:   11452
 k-point 21 :   0.2436 0.0000 0.0000  plane waves:   11456
 k-point 22 :   0.2308 0.0000 0.0000  plane waves:   11408
 k-point 23 :   0.2179 0.0000 0.0000  plane waves:   11396
 k-point 24 :   0.2051 0.0000 0.0000  plane waves:   11368
 k-point 25 :   0.1923 0.0000 0.0000  plane waves:   11352
 k-point 26 :   0.1795 0.0000 0.0000  plane waves:   11360
 k-point 27 :   0.1667 0.0000 0.0000  plane waves:   11376
 k-point 28 :   0.1538 0.0000 0.0000  plane waves:   11384
 k-point 29 :   0.1410 0.0000 0.0000  plane waves:   11396
 k-point 30 :   0.1282 0.0000 0.0000  plane waves:   11376
 k-point 31 :   0.1154 0.0000 0.0000  plane waves:   11364
 k-point 32 :   0.1026 0.0000 0.0000  plane waves:   11360
 k-point 33 :   0.0897 0.0000 0.0000  plane waves:   11344
 k-point 34 :   0.0769 0.0000 0.0000  plane waves:   11348
 k-point 35 :   0.0641 0.0000 0.0000  plane waves:   11316
 k-point 36 :   0.0513 0.0000 0.0000  plane waves:   11324
 k-point 37 :   0.0385 0.0000 0.0000  plane waves:   11328
 k-point 38 :   0.0256 0.0000 0.0000  plane waves:   11358
 k-point 39 :   0.0128 0.0000 0.0000  plane waves:   11362
 k-point 40 :   0.0000 0.0000 0.0000  plane waves:   11374
 k-point 41 :   0.0000 0.0000 0.0000  plane waves:   11374
 k-point 42 :   0.0085 0.0085 0.0000  plane waves:   11366
 k-point 43 :   0.0171 0.0171 0.0000  plane waves:   11358
 k-point 44 :   0.0256 0.0256 0.0000  plane waves:   11330
 k-point 45 :   0.0342 0.0342 0.0000  plane waves:   11342
 k-point 46 :   0.0427 0.0427 0.0000  plane waves:   11350
 k-point 47 :   0.0513 0.0513 0.0000  plane waves:   11378
 k-point 48 :   0.0598 0.0598 0.0000  plane waves:   11366
 k-point 49 :   0.0684 0.0684 0.0000  plane waves:   11358
 k-point 50 :   0.0769 0.0769 0.0000  plane waves:   11374
 k-point 51 :   0.0855 0.0855 0.0000  plane waves:   11398
 k-point 52 :   0.0940 0.0940 0.0000  plane waves:   11426
 k-point 53 :   0.1026 0.1026 0.0000  plane waves:   11410
 k-point 54 :   0.1111 0.1111 0.0000  plane waves:   11410
 k-point 55 :   0.1197 0.1197 0.0000  plane waves:   11426
 k-point 56 :   0.1282 0.1282 0.0000  plane waves:   11402
 k-point 57 :   0.1368 0.1368 0.0000  plane waves:   11446
 k-point 58 :   0.1453 0.1453 0.0000  plane waves:   11458
 k-point 59 :   0.1538 0.1538 0.0000  plane waves:   11442
 k-point 60 :   0.1624 0.1624 0.0000  plane waves:   11466
 k-point 61 :   0.1709 0.1709 0.0000  plane waves:   11482
 k-point 62 :   0.1795 0.1795 0.0000  plane waves:   11486
 k-point 63 :   0.1880 0.1880 0.0000  plane waves:   11506
 k-point 64 :   0.1966 0.1966 0.0000  plane waves:   11510
 k-point 65 :   0.2051 0.2051 0.0000  plane waves:   11502
 k-point 66 :   0.2137 0.2137 0.0000  plane waves:   11526
 k-point 67 :   0.2222 0.2222 0.0000  plane waves:   11530
 k-point 68 :   0.2308 0.2308 0.0000  plane waves:   11538
 k-point 69 :   0.2393 0.2393 0.0000  plane waves:   11490
 k-point 70 :   0.2479 0.2479 0.0000  plane waves:   11530
 k-point 71 :   0.2564 0.2564 0.0000  plane waves:   11518
 k-point 72 :   0.2650 0.2650 0.0000  plane waves:   11510
 k-point 73 :   0.2735 0.2735 0.0000  plane waves:   11502
 k-point 74 :   0.2821 0.2821 0.0000  plane waves:   11498
 k-point 75 :   0.2906 0.2906 0.0000  plane waves:   11502
 k-point 76 :   0.2991 0.2991 0.0000  plane waves:   11470
 k-point 77 :   0.3077 0.3077 0.0000  plane waves:   11470
 k-point 78 :   0.3162 0.3162 0.0000  plane waves:   11482
 k-point 79 :   0.3248 0.3248 0.0000  plane waves:   11474
 k-point 80 :   0.3333 0.3333 0.0000  plane waves:   11454

 maximum and minimum number of plane-waves per node :       598      542

 maximum number of plane-waves:     11538
 maximum index in each direction: 
   IXMAX=    6   IYMAX=    6   IZMAX=   32
   IXMIN=   -7   IYMIN=   -7   IZMIN=  -32

 NGX is ok and might be reduce to  28
 NGY is ok and might be reduce to  28
 NGZ is ok and might be reduce to 130

 parallel 3D FFT for wavefunctions:
    minimum data exchange during FFTs selected (reduces bandwidth)
 parallel 3D FFT for charge:
    minimum data exchange during FFTs selected (reduces bandwidth)


 total amount of memory used by VASP on root node    85395. kBytes
========================================================================

   base      :      30000. kBytes
   nonl-proj :       1491. kBytes
   fftplans  :      13752. kBytes
   grid      :      11540. kBytes
   one-center:         12. kBytes
   wavefun   :      28600. kBytes
 
     INWAV:  cpu time    0.0000: real time    0.0004
 initial charge density was supplied:
 number of electron      24.0000000 magnetization       0.0000000      0.0000000     -0.0044129
 keeping initial charge density in first step


--------------------------------------------------------------------------------------------------------


 Maximum index for augmentation-charges         2023 (set IRDMAX)


--------------------------------------------------------------------------------------------------------


 First call to EWALD:  gamma=   0.260
 Maximum number of real-space cells 5x 5x 1
 Maximum number of reciprocal cells 2x 2x 7

 FEWALD executed in parallel
    FEWALD:  cpu time    0.0016: real time    0.0016


----------------------------------------- Iteration    1(   1)  ---------------------------------------


    POTLOK:  cpu time    0.1535: real time    0.1542
    SETDIJ:  cpu time    0.4269: real time    0.4272
     EDDAV:  cpu time    1.7586: real time    1.7604
       DOS:  cpu time    0.0019: real time    0.0019
    --------------------------------------------
      LOOP:  cpu time    2.3429: real time    2.3508

 eigenvalue-minimisations  :  6424
 total energy-change (2. order) : 0.1559596E+03  (-0.6820959E+03)
 number of electron      24.0000000 magnetization       0.0000000      0.0000000     -0.0044129
 augmentation part       24.0000000 magnetization       0.0000000      0.0000000     -0.0044129

 Free energy of the ion-electron system (eV)
  ---------------------------------------------------
  alpha Z        PSCENC =         9.37520678
  Ewald energy   TEWEN  =      3892.48829513
  -Hartree energ DENC   =     -4633.09098584
  -exchange      EXHF   =         0.00000000
  -V(xc)+E(xc)   XCENC  =        82.67249227
  PAW double counting   =      2579.78743615    -2583.84766895
  entropy T*S    EENTRO =        -0.00008657
  eigenvalues    EBANDS =       -74.18842936
  atomic energy  EATOM  =       882.76334323
  Solvation  Ediel_sol  =         0.00000000
  ---------------------------------------------------
  free energy    TOTEN  =       155.95960284 eV

  energy without entropy =      155.95968941  energy(sigma->0) =      155.95964612


--------------------------------------------------------------------------------------------------------




----------------------------------------- Iteration    1(   2)  ---------------------------------------


     EDDAV:  cpu time    2.2346: real time    2.2362
       DOS:  cpu time    0.0018: real time    0.0018
    --------------------------------------------
      LOOP:  cpu time    2.2379: real time    2.2442

 eigenvalue-minimisations  :  9066
 total energy-change (2. order) :-0.1754382E+03  (-0.1544795E+03)
 number of electron      24.0000000 magnetization       0.0000000      0.0000000     -0.0044129
 augmentation part       24.0000000 magnetization       0.0000000      0.0000000     -0.0044129

 Free energy of the ion-electron system (eV)
  ---------------------------------------------------
  alpha Z        PSCENC =         9.37520678
  Ewald energy   TEWEN  =      3892.48829513
  -Hartree energ DENC   =     -4633.09098584
  -exchange      EXHF   =         0.00000000
  -V(xc)+E(xc)   XCENC  =        82.67249227
  PAW double counting   =      2579.78743615    -2583.84766895
  entropy T*S    EENTRO =        -0.00004481
  eigenvalues    EBANDS =      -249.62671783
  atomic energy  EATOM  =       882.76334323
  Solvation  Ediel_sol  =         0.00000000
  ---------------------------------------------------
  free energy    TOTEN  =       -19.47864387 eV

  energy without entropy =      -19.47859906  energy(sigma->0) =      -19.47862147


--------------------------------------------------------------------------------------------------------




----------------------------------------- Iteration    1(   3)  ---------------------------------------


     EDDAV:  cpu time    1.9742: real time    1.9778
       DOS:  cpu time    0.0020: real time    0.0020
    --------------------------------------------
      LOOP:  cpu time    1.9763: real time    2.0439

 eigenvalue-minimisations  :  7794
 total energy-change (2. order) :-0.3271903E+02  (-0.3171776E+02)
 number of electron      24.0000000 magnetization       0.0000000      0.0000000     -0.0044129
 augmentation part       24.0000000 magnetization       0.0000000      0.0000000     -0.0044129

 Free energy of the ion-electron system (eV)
  ---------------------------------------------------
  alpha Z        PSCENC =         9.37520678
  Ewald energy   TEWEN  =      3892.48829513
  -Hartree energ DENC   =     -4633.09098584
  -exchange      EXHF   =         0.00000000
  -V(xc)+E(xc)   XCENC  =        82.67249227
  PAW double counting   =      2579.78743615    -2583.84766895
  entropy T*S    EENTRO =        -0.00007863
  eigenvalues    EBANDS =      -282.34571568
  atomic energy  EATOM  =       882.76334323
  Solvation  Ediel_sol  =         0.00000000
  ---------------------------------------------------
  free energy    TOTEN  =       -52.19767555 eV

  energy without entropy =      -52.19759691  energy(sigma->0) =      -52.19763623


--------------------------------------------------------------------------------------------------------




----------------------------------------- Iteration    1(   4)  ---------------------------------------


     EDDAV:  cpu time    1.7830: real time    1.7882
       DOS:  cpu time    0.0021: real time    0.0021
    --------------------------------------------
      LOOP:  cpu time    1.7862: real time    1.7976

 eigenvalue-minimisations  :  6640
 total energy-change (2. order) :-0.1105455E+01  (-0.1084131E+01)
 number of electron      24.0000000 magnetization       0.0000000      0.0000000     -0.0044129
 augmentation part       24.0000000 magnetization       0.0000000      0.0000000     -0.0044129

 Free energy of the ion-electron system (eV)
  ---------------------------------------------------
  alpha Z        PSCENC =         9.37520678
  Ewald energy   TEWEN  =      3892.48829513
  -Hartree energ DENC   =     -4633.09098584
  -exchange      EXHF   =         0.00000000
  -V(xc)+E(xc)   XCENC  =        82.67249227
  PAW double counting   =      2579.78743615    -2583.84766895
  entropy T*S    EENTRO =        -0.00049201
  eigenvalues    EBANDS =      -283.45075777
  atomic energy  EATOM  =       882.76334323
  Solvation  Ediel_sol  =         0.00000000
  ---------------------------------------------------
  free energy    TOTEN  =       -53.30313101 eV

  energy without entropy =      -53.30263900  energy(sigma->0) =      -53.30288500


--------------------------------------------------------------------------------------------------------




----------------------------------------- Iteration    1(   5)  ---------------------------------------


     EDDAV:  cpu time    2.0008: real time    2.0039
       DOS:  cpu time    0.0019: real time    0.0019
 


 total charge     
 
# of ion     s       p       d       tot
----------------------------------------
  1        0.872   1.792   0.000   2.665
  2        0.872   1.792   0.000   2.665
  3        0.872   1.792   0.000   2.665
  4        0.872   1.792   0.000   2.664
  5        0.872   1.792   0.000   2.664
  6        0.872   1.792   0.000   2.664
------------------------------------------------
tot        5.234  10.753   0.000  15.987
 


 magnetization (x)
 
# of ion     s       p       d       tot
----------------------------------------
  1       -0.000   0.000   0.000  -0.000
  2       -0.000   0.000   0.000   0.000
  3       -0.000  -0.000   0.000  -0.000
  4       -0.000   0.000   0.000   0.000
  5       -0.000   0.000   0.000   0.000
  6       -0.000   0.000   0.000  -0.000
------------------------------------------------
tot       -0.000   0.000   0.000  -0.000
 


 magnetization (y)
 
# of ion     s       p       d       tot
----------------------------------------
  1        0.000   0.000   0.000   0.000
  2        0.000   0.000   0.000   0.000
  3        0.000   0.000   0.000   0.000
  4        0.000   0.000   0.000   0.000
  5        0.000  -0.000   0.000  -0.000
  6       -0.000   0.000   0.000   0.000
------------------------------------------------
tot        0.000   0.000   0.000   0.000
 


 magnetization (z)
 
# of ion     s       p       d       tot
----------------------------------------
  1        0.000  -0.002   0.000  -0.002
  2        0.000  -0.001   0.000  -0.001
  3        0.000  -0.001   0.000  -0.001
  4        0.000  -0.002   0.000  -0.002
  5        0.000  -0.002   0.000  -0.002
  6        0.000  -0.001   0.000  -0.001
------------------------------------------------
tot        0.000  -0.008   0.000  -0.008
 
    --------------------------------------------
      LOOP:  cpu time    2.0045: real time    2.0137

 eigenvalue-minimisations  :  7978
 total energy-change (2. order) :-0.3081350E-01  (-0.3073113E-01)
 number of electron      24.0000000 magnetization       0.0000000      0.0000000     -0.0044129
 augmentation part       24.0000000 magnetization       0.0000000      0.0000000     -0.0044129

 Free energy of the ion-electron system (eV)
  ---------------------------------------------------
  alpha Z        PSCENC =         9.37520678
  Ewald energy   TEWEN  =      3892.48829513
  -Hartree energ DENC   =     -4633.09098584
  -exchange      EXHF   =         0.00000000
  -V(xc)+E(xc)   XCENC  =        82.67249227
  PAW double counting   =      2579.78743615    -2583.84766895
  entropy T*S    EENTRO =        -0.00055216
  eigenvalues    EBANDS =      -283.48151113
  atomic energy  EATOM  =       882.76334323
  Solvation  Ediel_sol  =         0.00000000
  ---------------------------------------------------
  free energy    TOTEN  =       -53.33394451 eV

  energy without entropy =      -53.33339236  energy(sigma->0) =      -53.33366843


--------------------------------------------------------------------------------------------------------




----------------------------------------- Iteration    1(   6)  ---------------------------------------


     EDDAV:  cpu time    2.0695: real time    2.0730
       DOS:  cpu time    0.0022: real time    0.0022
    --------------------------------------------
      LOOP:  cpu time    2.0722: real time    2.0826

 eigenvalue-minimisations  :  8112
 total energy-change (2. order) :-0.1179881E-02  (-0.1179195E-02)
 number of electron      24.0000000 magnetization       0.0000000      0.0000000     -0.0044129
 augmentation part       24.0000000 magnetization       0.0000000      0.0000000     -0.0044129

 Free energy of the ion-electron system (eV)
  ---------------------------------------------------
  alpha Z        PSCENC =         9.37520678
  Ewald energy   TEWEN  =      3892.48829513
  -Hartree energ DENC   =     -4633.09098584
  -exchange      EXHF   =         0.00000000
  -V(xc)+E(xc)   XCENC  =        82.67249227
  PAW double counting   =      2579.78743615    -2583.84766895
  entropy T*S    EENTRO =        -0.00055171
  eigenvalues    EBANDS =      -283.48269146
  atomic energy  EATOM  =       882.76334323
  Solvation  Ediel_sol  =         0.00000000
  ---------------------------------------------------
  free energy    TOTEN  =       -53.33512439 eV

  energy without entropy =      -53.33457269  energy(sigma->0) =      -53.33484854


--------------------------------------------------------------------------------------------------------




----------------------------------------- Iteration    1(   7)  ---------------------------------------


     EDDAV:  cpu time    2.1802: real time    2.1833
       DOS:  cpu time    0.0020: real time    0.0021
    --------------------------------------------
      LOOP:  cpu time    2.1828: real time    2.1928

 eigenvalue-minimisations  :  8670
 total energy-change (2. order) :-0.5002623E-04  (-0.5002507E-04)
 number of electron      24.0000000 magnetization       0.0000000      0.0000000     -0.0044129
 augmentation part       24.0000000 magnetization       0.0000000      0.0000000     -0.0044129

 Free energy of the ion-electron system (eV)
  ---------------------------------------------------
  alpha Z        PSCENC =         9.37520678
  Ewald energy   TEWEN  =      3892.48829513
  -Hartree energ DENC   =     -4633.09098584
  -exchange      EXHF   =         0.00000000
  -V(xc)+E(xc)   XCENC  =        82.67249227
  PAW double counting   =      2579.78743615    -2583.84766895
  entropy T*S    EENTRO =        -0.00055170
  eigenvalues    EBANDS =      -283.48274149
  atomic energy  EATOM  =       882.76334323
  Solvation  Ediel_sol  =         0.00000000
  ---------------------------------------------------
  free energy    TOTEN  =       -53.33517442 eV

  energy without entropy =      -53.33462272  energy(sigma->0) =      -53.33489857


--------------------------------------------------------------------------------------------------------




----------------------------------------- Iteration    1(   8)  ---------------------------------------


     EDDAV:  cpu time    1.7566: real time    1.7596
       DOS:  cpu time    0.0021: real time    0.0021
    --------------------------------------------
      LOOP:  cpu time    1.7593: real time    1.7847

 eigenvalue-minimisations  :  6664
 total energy-change (2. order) :-0.2004436E-05  (-0.2003985E-05)
 number of electron      24.0000000 magnetization       0.0000000      0.0000000     -0.0044129
 augmentation part       24.0000000 magnetization       0.0000000      0.0000000     -0.0044129

 Free energy of the ion-electron system (eV)
  ---------------------------------------------------
  alpha Z        PSCENC =         9.37520678
  Ewald energy   TEWEN  =      3892.48829513
  -Hartree energ DENC   =     -4633.09098584
  -exchange      EXHF   =         0.00000000
  -V(xc)+E(xc)   XCENC  =        82.67249227
  PAW double counting   =      2579.78743615    -2583.84766895
  entropy T*S    EENTRO =        -0.00055170
  eigenvalues    EBANDS =      -283.48274350
  atomic energy  EATOM  =       882.76334323
  Solvation  Ediel_sol  =         0.00000000
  ---------------------------------------------------
  free energy    TOTEN  =       -53.33517643 eV

  energy without entropy =      -53.33462473  energy(sigma->0) =      -53.33490058


--------------------------------------------------------------------------------------------------------




----------------------------------------- Iteration    1(   9)  ---------------------------------------


     EDDAV:  cpu time    1.4040: real time    1.4084
       DOS:  cpu time    0.0020: real time    0.0020
    --------------------------------------------
      LOOP:  cpu time    1.4071: real time    1.4735

 eigenvalue-minimisations  :  4428
 total energy-change (2. order) :-0.1013595E-06  (-0.1018762E-06)
 number of electron      24.0000000 magnetization       0.0000000      0.0000000     -0.0044129
 augmentation part       24.0000000 magnetization       0.0000000      0.0000000     -0.0044129

 Free energy of the ion-electron system (eV)
  ---------------------------------------------------
  alpha Z        PSCENC =         9.37520678
  Ewald energy   TEWEN  =      3892.48829513
  -Hartree energ DENC   =     -4633.09098584
  -exchange      EXHF   =         0.00000000
  -V(xc)+E(xc)   XCENC  =        82.67249227
  PAW double counting   =      2579.78743615    -2583.84766895
  entropy T*S    EENTRO =        -0.00055170
  eigenvalues    EBANDS =      -283.48274360
  atomic energy  EATOM  =       882.76334323
  Solvation  Ediel_sol  =         0.00000000
  ---------------------------------------------------
  free energy    TOTEN  =       -53.33517653 eV

  energy without entropy =      -53.33462483  energy(sigma->0) =      -53.33490068


--------------------------------------------------------------------------------------------------------




----------------------------------------- Iteration    1(  10)  ---------------------------------------


     EDDAV:  cpu time    1.3075: real time    1.3089
       DOS:  cpu time    0.0020: real time    0.0020
 


 total charge     
 
# of ion     s       p       d       tot
----------------------------------------
  1        0.872   1.793   0.000   2.665
  2        0.872   1.793   0.000   2.665
  3        0.872   1.793   0.000   2.665
  4        0.872   1.793   0.000   2.664
  5        0.872   1.793   0.000   2.664
  6        0.872   1.793   0.000   2.664
------------------------------------------------
tot        5.231  10.756   0.000  15.987
 


 magnetization (x)
 
# of ion     s       p       d       tot
----------------------------------------
  1       -0.000  -0.000   0.000  -0.000
  2        0.000   0.000   0.000   0.000
  3        0.000  -0.000   0.000  -0.000
  4        0.000  -0.000   0.000  -0.000
  5        0.000   0.000   0.000   0.000
  6        0.000   0.000   0.000   0.000
------------------------------------------------
tot       -0.000   0.000   0.000   0.000
 


 magnetization (y)
 
# of ion     s       p       d       tot
----------------------------------------
  1       -0.000  -0.000   0.000  -0.000
  2       -0.000   0.000   0.000   0.000
  3        0.000   0.000   0.000   0.000
  4        0.000   0.000   0.000   0.000
  5       -0.000   0.000   0.000  -0.000
  6       -0.000  -0.000   0.000  -0.000
------------------------------------------------
tot       -0.000  -0.000   0.000  -0.000
 


 magnetization (z)
 
# of ion     s       p       d       tot
----------------------------------------
  1       -0.000  -0.002   0.000  -0.002
  2       -0.000  -0.001   0.000  -0.001
  3       -0.000  -0.001   0.000  -0.001
  4       -0.000  -0.002   0.000  -0.002
  5       -0.000  -0.002   0.000  -0.002
  6       -0.000  -0.001   0.000  -0.001
------------------------------------------------
tot       -0.000  -0.008   0.000  -0.008
 
    --------------------------------------------
      LOOP:  cpu time    1.3112: real time    1.3192

 eigenvalue-minimisations  :  3976
 total energy-change (2. order) :-0.2477145E-07  (-0.2434464E-07)
 number of electron      24.0000000 magnetization       0.0000000      0.0000000     -0.0044129
 augmentation part       24.0000000 magnetization       0.0000000      0.0000000     -0.0044129

 Free energy of the ion-electron system (eV)
  ---------------------------------------------------
  alpha Z        PSCENC =         9.37520678
  Ewald energy   TEWEN  =      3892.48829513
  -Hartree energ DENC   =     -4633.09098584
  -exchange      EXHF   =         0.00000000
  -V(xc)+E(xc)   XCENC  =        82.67249227
  PAW double counting   =      2579.78743615    -2583.84766895
  entropy T*S    EENTRO =        -0.00055170
  eigenvalues    EBANDS =      -283.48274362
  atomic energy  EATOM  =       882.76334323
  Solvation  Ediel_sol  =         0.00000000
  ---------------------------------------------------
  free energy    TOTEN  =       -53.33517655 eV

  energy without entropy =      -53.33462485  energy(sigma->0) =      -53.33490070


--------------------------------------------------------------------------------------------------------




 average (electrostatic) potential at core
  the test charge radii are     0.6991
  (the norm of the test charge is              1.0000)
       1 -58.2035       2 -58.2034       3 -58.2034       4 -58.2033       5 -58.2033
       6 -58.2032
 
 
 
 E-fermi :  -2.7354     XC(G=0):  -2.2203     alpha+bet : -1.9064


 k-point     1 :       0.5000    0.0000    0.0000
  band No.  band energies     occupation 
      1     -20.3388      1.00000
      2     -20.3386      1.00000
      3     -20.3377      1.00000
      4     -20.3377      1.00000
      5     -17.0366      1.00000
      6     -17.0355      1.00000
      7     -16.0003      1.00000
      8     -15.9996      1.00000
      9     -10.5199      1.00000
     10     -10.5198      1.00000
     11     -10.5192      1.00000
     12     -10.5191      1.00000
     13      -9.1716      1.00000
     14      -9.1712      1.00000
     15      -9.1707      1.00000
     16      -9.1704      1.00000
     17      -9.1703      1.00000
     18      -9.1701      1.00000
     19      -8.0822      1.00000
     20      -8.0821      1.00000
     21      -8.0797      1.00000
     22      -8.0796      1.00000
     23      -5.1034      1.00000
     24      -5.1006      1.00000
     25      -1.0555      0.00000
     26      -1.0529      0.00000
     27       3.1914      0.00000
     28       3.1914      0.00000
     29       3.2033      0.00000
     30       3.2033      0.00000
     31       3.6653      0.00000
     32       3.6671      0.00000
     33       3.6687      0.00000
     34       3.9861      0.00000
     35       3.9880      0.00000
     36       4.0243      0.00000
     37       4.0252      0.00000
     38       4.2652      0.00000

 k-point     2 :       0.4872    0.0000    0.0000
  band No.  band energies     occupation 
      1     -20.4361      1.00000
      2     -20.4351      1.00000
      3     -20.2389      1.00000
      4     -20.2379      1.00000
      5     -17.0355      1.00000
      6     -17.0344      1.00000
      7     -15.9992      1.00000
      8     -15.9986      1.00000
      9     -10.6748      1.00000
     10     -10.6741      1.00000
     11     -10.3640      1.00000
     12     -10.3633      1.00000
     13      -9.3056      1.00000
     14      -9.3052      1.00000
     15      -9.1775      1.00000
     16      -9.1772      1.00000
     17      -9.0360      1.00000
     18      -9.0356      1.00000
     19      -8.1945      1.00000
     20      -8.1920      1.00000
     21      -7.9675      1.00000
     22      -7.9650      1.00000
     23      -5.1019      1.00000
     24      -5.0991      1.00000
     25      -1.0559      0.00000
     26      -1.0533      0.00000
     27       3.0563      0.00000
     28       3.0683      0.00000
     29       3.3299      0.00000
     30       3.3417      0.00000
     31       3.4733      0.00000
     32       3.4755      0.00000
     33       3.8525      0.00000
     34       3.8899      0.00000
     35       4.1261      0.00000
     36       4.1439      0.00000
     37       4.1612      0.00000
     38       4.1638      0.00000

 k-point     3 :       0.4744    0.0000    0.0000
  band No.  band energies     occupation 
      1     -20.5311      1.00000
      2     -20.5301      1.00000
      3     -20.1368      1.00000
      4     -20.1358      1.00000
      5     -17.0321      1.00000
      6     -17.0311      1.00000
      7     -15.9959      1.00000
      8     -15.9953      1.00000
      9     -10.8286      1.00000
     10     -10.8278      1.00000
     11     -10.2074      1.00000
     12     -10.2068      1.00000
     13      -9.4406      1.00000
     14      -9.4402      1.00000
     15      -9.1951      1.00000
     16      -9.1947      1.00000
     17      -8.9022      1.00000
     18      -8.9018      1.00000
     19      -8.3044      1.00000
     20      -8.3019      1.00000
     21      -7.8503      1.00000
     22      -7.8477      1.00000
     23      -5.0971      1.00000
     24      -5.0944      1.00000
     25      -1.0570      0.00000
     26      -1.0544      0.00000
     27       2.9247      0.00000
     28       2.9368      0.00000
     29       3.2803      0.00000
     30       3.2835      0.00000
     31       3.4718      0.00000
     32       3.4836      0.00000
     33       3.7203      0.00000
     34       3.7580      0.00000
     35       4.0102      0.00000
     36       4.0309      0.00000
     37       4.2682      0.00000
     38       4.3042      0.00000

 k-point     4 :       0.4615    0.0000    0.0000
  band No.  band energies     occupation 
      1     -20.6237      1.00000
      2     -20.6227      1.00000
      3     -20.0324      1.00000
      4     -20.0314      1.00000
      5     -17.0266      1.00000
      6     -17.0255      1.00000
      7     -15.9905      1.00000
      8     -15.9898      1.00000
      9     -10.9813      1.00000
     10     -10.9806      1.00000
     11     -10.0500      1.00000
     12     -10.0493      1.00000
     13      -9.5757      1.00000
     14      -9.5753      1.00000
     15      -9.2244      1.00000
     16      -9.2241      1.00000
     17      -8.7689      1.00000
     18      -8.7686      1.00000
     19      -8.4119      1.00000
     20      -8.4094      1.00000
     21      -7.7307      1.00000
     22      -7.7282      1.00000
     23      -5.0897      1.00000
     24      -5.0869      1.00000
     25      -1.0591      0.00000
     26      -1.0565      0.00000
     27       2.7965      0.00000
     28       2.8087      0.00000
     29       3.0886      0.00000
     30       3.0918      0.00000
     31       3.5915      0.00000
     32       3.6172      0.00000
     33       3.6289      0.00000
     34       3.6293      0.00000
     35       3.8785      0.00000
     36       3.8992      0.00000
     37       4.4141      0.00000
     38       4.4501      0.00000

 k-point     5 :       0.4487    0.0000    0.0000
  band No.  band energies     occupation 
      1     -20.7139      1.00000
      2     -20.7130      1.00000
      3     -19.9256      1.00000
      4     -19.9246      1.00000
      5     -17.0188      1.00000
      6     -17.0178      1.00000
      7     -15.9828      1.00000
      8     -15.9821      1.00000
      9     -11.1327      1.00000
     10     -11.1320      1.00000
     11      -9.8923      1.00000
     12      -9.8916      1.00000
     13      -9.7106      1.00000
     14      -9.7103      1.00000
     15      -9.2656      1.00000
     16      -9.2652      1.00000
     17      -8.6364      1.00000
     18      -8.6360      1.00000
     19      -8.5168      1.00000
     20      -8.5143      1.00000
     21      -7.6088      1.00000
     22      -7.6062      1.00000
     23      -5.0787      1.00000
     24      -5.0759      1.00000
     25      -1.0620      0.00000
     26      -1.0593      0.00000
     27       2.6718      0.00000
     28       2.6840      0.00000
     29       2.8977      0.00000
     30       2.9008      0.00000
     31       3.4660      0.00000
     32       3.5041      0.00000
     33       3.7504      0.00000
     34       3.7659      0.00000
     35       3.7711      0.00000
     36       3.7776      0.00000
     37       4.5622      0.00000
     38       4.5643      0.00000

 k-point     6 :       0.4359    0.0000    0.0000
  band No.  band energies     occupation 
      1     -20.8017      1.00000
      2     -20.8008      1.00000
      3     -19.8166      1.00000
      4     -19.8156      1.00000
      5     -17.0088      1.00000
      6     -17.0078      1.00000
      7     -15.9729      1.00000
      8     -15.9722      1.00000
      9     -11.2829      1.00000
     10     -11.2821      1.00000
     11      -9.8456      1.00000
     12      -9.8452      1.00000
     13      -9.7336      1.00000
     14      -9.7329      1.00000
     15      -9.3173      1.00000
     16      -9.3169      1.00000
     17      -8.6189      1.00000
     18      -8.6164      1.00000
     19      -8.5048      1.00000
     20      -8.5044      1.00000
     21      -7.4847      1.00000
     22      -7.4822      1.00000
     23      -5.0645      1.00000
     24      -5.0617      1.00000
     25      -1.0654      0.00000
     26      -1.0628      0.00000
     27       2.5506      0.00000
     28       2.5629      0.00000
     29       2.7074      0.00000
     30       2.7106      0.00000
     31       3.3440      0.00000
     32       3.3822      0.00000
     33       3.6260      0.00000
     34       3.6465      0.00000
     35       3.9181      0.00000
     36       3.9296      0.00000
     37       4.4420      0.00000
     38       4.4761      0.00000

 k-point     7 :       0.4231    0.0000    0.0000
  band No.  band energies     occupation 
      1     -20.8871      1.00000
      2     -20.8861      1.00000
      3     -19.7053      1.00000
      4     -19.7043      1.00000
      5     -16.9966      1.00000
      6     -16.9955      1.00000
      7     -15.9608      1.00000
      8     -15.9601      1.00000
      9     -11.4317      1.00000
     10     -11.4309      1.00000
     11      -9.9802      1.00000
     12      -9.9798      1.00000
     13      -9.5746      1.00000
     14      -9.5740      1.00000
     15      -9.3795      1.00000
     16      -9.3792      1.00000
     17      -8.7185      1.00000
     18      -8.7160      1.00000
     19      -8.3744      1.00000
     20      -8.3740      1.00000
     21      -7.3588      1.00000
     22      -7.3563      1.00000
     23      -5.0472      1.00000
     24      -5.0444      1.00000
     25      -1.0698      0.00000
     26      -1.0672      0.00000
     27       2.4328      0.00000
     28       2.4452      0.00000
     29       2.5182      0.00000
     30       2.5213      0.00000
     31       3.2254      0.00000
     32       3.2638      0.00000
     33       3.5051      0.00000
     34       3.5256      0.00000
     35       4.0736      0.00000
     36       4.0851      0.00000
     37       4.3231      0.00000
     38       4.3572      0.00000

 k-point     8 :       0.4103    0.0000    0.0000
  band No.  band energies     occupation 
      1     -20.9700      1.00000
      2     -20.9690      1.00000
      3     -19.5918      1.00000
      4     -19.5908      1.00000
      5     -16.9822      1.00000
      6     -16.9811      1.00000
      7     -15.9466      1.00000
      8     -15.9459      1.00000
      9     -11.5791      1.00000
     10     -11.5784      1.00000
     11     -10.1146      1.00000
     12     -10.1142      1.00000
     13      -9.4520      1.00000
     14      -9.4517      1.00000
     15      -9.4151      1.00000
     16      -9.4145      1.00000
     17      -8.8153      1.00000
     18      -8.8129      1.00000
     19      -8.2450      1.00000
     20      -8.2446      1.00000
     21      -7.2305      1.00000
     22      -7.2279      1.00000
     23      -5.0265      1.00000
     24      -5.0237      1.00000
     25      -1.0751      0.00000
     26      -1.0725      0.00000
     27       2.3185      0.00000
     28       2.3295      0.00000
     29       2.3310      0.00000
     30       2.3326      0.00000
     31       3.1103      0.00000
     32       3.1488      0.00000
     33       3.3879      0.00000
     34       3.4083      0.00000
     35       4.2078      0.00000
     36       4.2325      0.00000
     37       4.2417      0.00000
     38       4.2439      0.00000

 k-point     9 :       0.3974    0.0000    0.0000
  band No.  band energies     occupation 
      1     -21.0505      1.00000
      2     -21.0495      1.00000
      3     -19.4760      1.00000
      4     -19.4751      1.00000
      5     -16.9655      1.00000
      6     -16.9644      1.00000
      7     -15.9302      1.00000
      8     -15.9296      1.00000
      9     -11.7252      1.00000
     10     -11.7244      1.00000
     11     -10.2483      1.00000
     12     -10.2479      1.00000
     13      -9.5342      1.00000
     14      -9.5339      1.00000
     15      -9.2557      1.00000
     16      -9.2551      1.00000
     17      -8.9095      1.00000
     18      -8.9070      1.00000
     19      -8.1172      1.00000
     20      -8.1168      1.00000
     21      -7.1001      1.00000
     22      -7.0976      1.00000
     23      -5.0029      1.00000
     24      -5.0001      1.00000
     25      -1.0816      0.00000
     26      -1.0790      0.00000
     27       2.1417      0.00000
     28       2.1448      0.00000
     29       2.2077      0.00000
     30       2.2202      0.00000
     31       2.9986      0.00000
     32       3.0373      0.00000
     33       3.2742      0.00000
     34       3.2946      0.00000
     35       4.0960      0.00000
     36       4.1297      0.00000
     37       4.3947      0.00000
     38       4.4060      0.00000

 k-point    10 :       0.3846    0.0000    0.0000
  band No.  band energies     occupation 
      1     -21.1285      1.00000
      2     -21.1275      1.00000
      3     -19.3581      1.00000
      4     -19.3572      1.00000
      5     -16.9466      1.00000
      6     -16.9456      1.00000
      7     -15.9117      1.00000
      8     -15.9111      1.00000
      9     -11.8697      1.00000
     10     -11.8689      1.00000
     11     -10.3814      1.00000
     12     -10.3810      1.00000
     13      -9.6255      1.00000
     14      -9.6251      1.00000
     15      -9.0963      1.00000
     16      -9.0957      1.00000
     17      -9.0009      1.00000
     18      -8.9984      1.00000
     19      -7.9909      1.00000
     20      -7.9905      1.00000
     21      -6.9677      1.00000
     22      -6.9651      1.00000
     23      -4.9756      1.00000
     24      -4.9728      1.00000
     25      -1.0889      0.00000
     26      -1.0863      0.00000
     27       1.9553      0.00000
     28       1.9584      0.00000
     29       2.1004      0.00000
     30       2.1130      0.00000
     31       2.8904      0.00000
     32       2.9293      0.00000
     33       3.1642      0.00000
     34       3.1846      0.00000
     35       3.9876      0.00000
     36       4.0213      0.00000
     37       4.5604      0.00000
     38       4.5716      0.00000

 k-point    11 :       0.3718    0.0000    0.0000
  band No.  band energies     occupation 
      1     -21.2040      1.00000
      2     -21.2030      1.00000
      3     -19.2380      1.00000
      4     -19.2371      1.00000
      5     -16.9255      1.00000
      6     -16.9244      1.00000
      7     -15.8912      1.00000
      8     -15.8905      1.00000
      9     -12.0127      1.00000
     10     -12.0119      1.00000
     11     -10.5138      1.00000
     12     -10.5134      1.00000
     13      -9.7254      1.00000
     14      -9.7251      1.00000
     15      -9.0898      1.00000
     16      -9.0873      1.00000
     17      -8.9367      1.00000
     18      -8.9361      1.00000
     19      -7.8662      1.00000
     20      -7.8658      1.00000
     21      -6.8335      1.00000
     22      -6.8309      1.00000
     23      -4.9456      1.00000
     24      -4.9428      1.00000
     25      -1.0977      0.00000
     26      -1.0951      0.00000
     27       1.7700      0.00000
     28       1.7731      0.00000
     29       1.9966      0.00000
     30       2.0092      0.00000
     31       2.7857      0.00000
     32       2.8246      0.00000
     33       3.0578      0.00000
     34       3.0781      0.00000
     35       3.8827      0.00000
     36       3.9163      0.00000
     37       4.5340      0.00000
     38       4.5849      0.00000

 k-point    12 :       0.3590    0.0000    0.0000
  band No.  band energies     occupation 
      1     -21.2770      1.00000
      2     -21.2760      1.00000
      3     -19.1158      1.00000
      4     -19.1149      1.00000
      5     -16.9022      1.00000
      6     -16.9011      1.00000
      7     -15.8685      1.00000
      8     -15.8679      1.00000
      9     -12.1541      1.00000
     10     -12.1533      1.00000
     11     -10.6453      1.00000
     12     -10.6449      1.00000
     13      -9.8338      1.00000
     14      -9.8334      1.00000
     15      -9.1756      1.00000
     16      -9.1731      1.00000
     17      -8.7779      1.00000
     18      -8.7773      1.00000
     19      -7.7436      1.00000
     20      -7.7432      1.00000
     21      -6.6975      1.00000
     22      -6.6949      1.00000
     23      -4.9125      1.00000
     24      -4.9097      1.00000
     25      -1.1088      0.00000
     26      -1.1061      0.00000
     27       1.5862      0.00000
     28       1.5892      0.00000
     29       1.8963      0.00000
     30       1.9090      0.00000
     31       2.6844      0.00000
     32       2.7235      0.00000
     33       2.9549      0.00000
     34       2.9752      0.00000
     35       3.7813      0.00000
     36       3.8148      0.00000
     37       4.4321      0.00000
     38       4.4830      0.00000

 k-point    13 :       0.3462    0.0000    0.0000
  band No.  band energies     occupation 
      1     -21.3476      1.00000
      2     -21.3466      1.00000
      3     -18.9916      1.00000
      4     -18.9907      1.00000
      5     -16.8766      1.00000
      6     -16.8756      1.00000
      7     -15.8438      1.00000
      8     -15.8431      1.00000
      9     -12.2938      1.00000
     10     -12.2930      1.00000
     11     -10.7761      1.00000
     12     -10.7757      1.00000
     13      -9.9489      1.00000
     14      -9.9485      1.00000
     15      -9.2585      1.00000
     16      -9.2561      1.00000
     17      -8.6195      1.00000
     18      -8.6189      1.00000
     19      -7.6230      1.00000
     20      -7.6227      1.00000
     21      -6.5598      1.00000
     22      -6.5572      1.00000
     23      -4.8760      1.00000
     24      -4.8733      1.00000
     25      -1.1203      0.00000
     26      -1.1176      0.00000
     27       1.4039      0.00000
     28       1.4070      0.00000
     29       1.7995      0.00000
     30       1.8122      0.00000
     31       2.5867      0.00000
     32       2.6259      0.00000
     33       2.8557      0.00000
     34       2.8760      0.00000
     35       3.6835      0.00000
     36       3.7169      0.00000
     37       4.3337      0.00000
     38       4.3847      0.00000

 k-point    14 :       0.3333    0.0000    0.0000
  band No.  band energies     occupation 
      1     -21.4156      1.00000
      2     -21.4146      1.00000
      3     -18.8653      1.00000
      4     -18.8644      1.00000
      5     -16.8489      1.00000
      6     -16.8478      1.00000
      7     -15.8172      1.00000
      8     -15.8165      1.00000
      9     -12.4318      1.00000
     10     -12.4310      1.00000
     11     -10.9056      1.00000
     12     -10.9053      1.00000
     13     -10.0712      1.00000
     14     -10.0708      1.00000
     15      -9.3387      1.00000
     16      -9.3363      1.00000
     17      -8.4616      1.00000
     18      -8.4611      1.00000
     19      -7.5046      1.00000
     20      -7.5042      1.00000
     21      -6.4200      1.00000
     22      -6.4174      1.00000
     23      -4.8366      1.00000
     24      -4.8338      1.00000
     25      -1.1342      0.00000
     26      -1.1315      0.00000
     27       1.2230      0.00000
     28       1.2260      0.00000
     29       1.7062      0.00000
     30       1.7190      0.00000
     31       2.4925      0.00000
     32       2.5318      0.00000
     33       2.7601      0.00000
     34       2.7803      0.00000
     35       3.5892      0.00000
     36       3.6225      0.00000
     37       4.2390      0.00000
     38       4.2900      0.00000

 k-point    15 :       0.3205    0.0000    0.0000
  band No.  band energies     occupation 
      1     -21.4811      1.00000
      2     -21.4801      1.00000
      3     -18.7370      1.00000
      4     -18.7361      1.00000
      5     -16.8189      1.00000
      6     -16.8178      1.00000
      7     -15.7886      1.00000
      8     -15.7880      1.00000
      9     -12.5683      1.00000
     10     -12.5674      1.00000
     11     -11.0340      1.00000
     12     -11.0336      1.00000
     13     -10.1998      1.00000
     14     -10.1994      1.00000
     15      -9.4161      1.00000
     16      -9.4136      1.00000
     17      -8.3052      1.00000
     18      -8.3046      1.00000
     19      -7.3884      1.00000
     20      -7.3881      1.00000
     21      -6.2792      1.00000
     22      -6.2765      1.00000
     23      -4.7941      1.00000
     24      -4.7913      1.00000
     25      -1.1500      0.00000
     26      -1.1473      0.00000
     27       1.0435      0.00000
     28       1.0465      0.00000
     29       1.6164      0.00000
     30       1.6293      0.00000
     31       2.4018      0.00000
     32       2.4412      0.00000
     33       2.6681      0.00000
     34       2.6883      0.00000
     35       3.4984      0.00000
     36       3.5316      0.00000
     37       4.1478      0.00000
     38       4.1988      0.00000

 k-point    16 :       0.3077    0.0000    0.0000
  band No.  band energies     occupation 
      1     -21.5441      1.00000
      2     -21.5431      1.00000
      3     -18.6068      1.00000
      4     -18.6059      1.00000
      5     -16.7867      1.00000
      6     -16.7856      1.00000
      7     -15.7582      1.00000
      8     -15.7576      1.00000
      9     -12.7028      1.00000
     10     -12.7020      1.00000
     11     -11.1613      1.00000
     12     -11.1609      1.00000
     13     -10.3339      1.00000
     14     -10.3335      1.00000
     15      -9.4904      1.00000
     16      -9.4880      1.00000
     17      -8.1495      1.00000
     18      -8.1490      1.00000
     19      -7.2748      1.00000
     20      -7.2745      1.00000
     21      -6.1371      1.00000
     22      -6.1344      1.00000
     23      -4.7484      1.00000
     24      -4.7456      1.00000
     25      -1.1680      0.00000
     26      -1.1653      0.00000
     27       0.8660      0.00000
     28       0.8690      0.00000
     29       1.5302      0.00000
     30       1.5430      0.00000
     31       2.3146      0.00000
     32       2.3541      0.00000
     33       2.5797      0.00000
     34       2.5999      0.00000
     35       3.4111      0.00000
     36       3.4442      0.00000
     37       4.0602      0.00000
     38       4.1113      0.00000

 k-point    17 :       0.2949    0.0000    0.0000
  band No.  band energies     occupation 
      1     -21.6046      1.00000
      2     -21.6036      1.00000
      3     -18.4747      1.00000
      4     -18.4738      1.00000
      5     -16.7523      1.00000
      6     -16.7512      1.00000
      7     -15.7260      1.00000
      8     -15.7254      1.00000
      9     -12.8356      1.00000
     10     -12.8348      1.00000
     11     -11.2871      1.00000
     12     -11.2867      1.00000
     13     -10.4729      1.00000
     14     -10.4725      1.00000
     15      -9.5620      1.00000
     16      -9.5595      1.00000
     17      -7.9955      1.00000
     18      -7.9949      1.00000
     19      -7.1644      1.00000
     20      -7.1641      1.00000
     21      -5.9933      1.00000
     22      -5.9907      1.00000
     23      -4.6997      1.00000
     24      -4.6969      1.00000
     25      -1.1884      0.00000
     26      -1.1857      0.00000
     27       0.6912      0.00000
     28       0.6942      0.00000
     29       1.4474      0.00000
     30       1.4603      0.00000
     31       2.2310      0.00000
     32       2.2706      0.00000
     33       2.4949      0.00000
     34       2.5150      0.00000
     35       3.3273      0.00000
     36       3.3604      0.00000
     37       3.9762      0.00000
     38       4.0273      0.00000

 k-point    18 :       0.2821    0.0000    0.0000
  band No.  band energies     occupation 
      1     -21.6625      1.00000
      2     -21.6615      1.00000
      3     -18.3408      1.00000
      4     -18.3399      1.00000
      5     -16.7156      1.00000
      6     -16.7146      1.00000
      7     -15.6921      1.00000
      8     -15.6914      1.00000
      9     -12.9667      1.00000
     10     -12.9658      1.00000
     11     -11.4114      1.00000
     12     -11.4110      1.00000
     13     -10.6164      1.00000
     14     -10.6160      1.00000
     15      -9.6306      1.00000
     16      -9.6282      1.00000
     17      -7.8435      1.00000
     18      -7.8430      1.00000
     19      -7.0571      1.00000
     20      -7.0567      1.00000
     21      -5.8486      1.00000
     22      -5.8459      1.00000
     23      -4.6478      1.00000
     24      -4.6450      1.00000
     25      -1.2114      0.00000
     26      -1.2086      0.00000
     27       0.5180      0.00000
     28       0.5210      0.00000
     29       1.3681      0.00000
     30       1.3811      0.00000
     31       2.1509      0.00000
     32       2.1905      0.00000
     33       2.4138      0.00000
     34       2.4338      0.00000
     35       3.2471      0.00000
     36       3.2801      0.00000
     37       3.8957      0.00000
     38       3.9468      0.00000

 k-point    19 :       0.2692    0.0000    0.0000
  band No.  band energies     occupation 
      1     -21.7179      1.00000
      2     -21.7169      1.00000
      3     -18.2051      1.00000
      4     -18.2042      1.00000
      5     -16.6769      1.00000
      6     -16.6758      1.00000
      7     -15.6566      1.00000
      8     -15.6560      1.00000
      9     -13.0961      1.00000
     10     -13.0952      1.00000
     11     -11.5343      1.00000
     12     -11.5339      1.00000
     13     -10.7641      1.00000
     14     -10.7636      1.00000
     15      -9.6963      1.00000
     16      -9.6938      1.00000
     17      -7.6933      1.00000
     18      -7.6928      1.00000
     19      -6.9528      1.00000
     20      -6.9524      1.00000
     21      -5.7033      1.00000
     22      -5.7006      1.00000
     23      -4.5925      1.00000
     24      -4.5897      1.00000
     25      -1.2375      0.00000
     26      -1.2347      0.00000
     27       0.3439      0.00000
     28       0.3469      0.00000
     29       1.2924      0.00000
     30       1.3054      0.00000
     31       2.0743      0.00000
     32       2.1140      0.00000
     33       2.3362      0.00000
     34       2.3562      0.00000
     35       3.1705      0.00000
     36       3.2034      0.00000
     37       3.8189      0.00000
     38       3.8700      0.00000

 k-point    20 :       0.2564    0.0000    0.0000
  band No.  band energies     occupation 
      1     -21.7708      1.00000
      2     -21.7698      1.00000
      3     -18.0678      1.00000
      4     -18.0669      1.00000
      5     -16.6358      1.00000
      6     -16.6348      1.00000
      7     -15.6196      1.00000
      8     -15.6189      1.00000
      9     -13.2235      1.00000
     10     -13.2226      1.00000
     11     -11.6554      1.00000
     12     -11.6550      1.00000
     13     -10.9147      1.00000
     14     -10.9142      1.00000
     15      -9.7590      1.00000
     16      -9.7566      1.00000
     17      -7.5461      1.00000
     18      -7.5456      1.00000
     19      -6.8520      1.00000
     20      -6.8516      1.00000
     21      -5.5567      1.00000
     22      -5.5540      1.00000
     23      -4.5344      1.00000
     24      -4.5316      1.00000
     25      -1.2662      0.00000
     26      -1.2635      0.00000
     27       0.1737      0.00000
     28       0.1767      0.00000
     29       1.2202      0.00000
     30       1.2332      0.00000
     31       2.0012      0.00000
     32       2.0410      0.00000
     33       2.2622      0.00000
     34       2.2822      0.00000
     35       3.0974      0.00000
     36       3.1302      0.00000
     37       3.7456      0.00000
     38       3.7967      0.00000

 k-point    21 :       0.2436    0.0000    0.0000
  band No.  band energies     occupation 
      1     -21.8211      1.00000
      2     -21.8201      1.00000
      3     -17.9289      1.00000
      4     -17.9280      1.00000
      5     -16.5926      1.00000
      6     -16.5915      1.00000
      7     -15.5813      1.00000
      8     -15.5806      1.00000
      9     -13.3490      1.00000
     10     -13.3482      1.00000
     11     -11.7748      1.00000
     12     -11.7744      1.00000
     13     -11.0679      1.00000
     14     -11.0675      1.00000
     15      -9.8187      1.00000
     16      -9.8163      1.00000
     17      -7.4011      1.00000
     18      -7.4006      1.00000
     19      -6.7546      1.00000
     20      -6.7543      1.00000
     21      -5.4095      1.00000
     22      -5.4069      1.00000
     23      -4.4732      1.00000
     24      -4.4703      1.00000
     25      -1.2983      0.00000
     26      -1.2955      0.00000
     27       0.0054      0.00000
     28       0.0084      0.00000
     29       1.1515      0.00000
     30       1.1646      0.00000
     31       1.9317      0.00000
     32       1.9716      0.00000
     33       2.1919      0.00000
     34       2.2119      0.00000
     35       3.0278      0.00000
     36       3.0606      0.00000
     37       3.6759      0.00000
     38       3.7270      0.00000

 k-point    22 :       0.2308    0.0000    0.0000
  band No.  band energies     occupation 
      1     -21.8689      1.00000
      2     -21.8679      1.00000
      3     -17.7885      1.00000
      4     -17.7876      1.00000
      5     -16.5471      1.00000
      6     -16.5460      1.00000
      7     -15.5417      1.00000
      8     -15.5410      1.00000
      9     -13.4726      1.00000
     10     -13.4717      1.00000
     11     -11.8922      1.00000
     12     -11.8918      1.00000
     13     -11.2230      1.00000
     14     -11.2225      1.00000
     15      -9.8753      1.00000
     16      -9.8729      1.00000
     17      -7.2591      1.00000
     18      -7.2587      1.00000
     19      -6.6610      1.00000
     20      -6.6606      1.00000
     21      -5.2616      1.00000
     22      -5.2589      1.00000
     23      -4.4084      1.00000
     24      -4.4056      1.00000
     25      -1.3333      0.00000
     26      -1.3306      0.00000
     27      -0.1606      0.00000
     28      -0.1576      0.00000
     29       1.0863      0.00000
     30       1.0994      0.00000
     31       1.8658      0.00000
     32       1.9057      0.00000
     33       2.1252      0.00000
     34       2.1451      0.00000
     35       2.9618      0.00000
     36       2.9946      0.00000
     37       3.6097      0.00000
     38       3.6609      0.00000

 k-point    23 :       0.2179    0.0000    0.0000
  band No.  band energies     occupation 
      1     -21.9141      1.00000
[...]
  0.000   0.000   0.000   0.000   0.000   0.000   0.000   0.000
  0.000   0.000   0.667   0.000   0.000   0.000   0.000   0.000
  0.000   0.000   0.000   0.667   0.000   0.000   0.000   0.000
  0.000   0.000   0.000   0.000   0.667   0.000   0.000   0.000
  0.000   0.000   0.000   0.000   0.000   0.000   0.000   0.000
  0.000   0.000   0.000   0.000   0.000   0.000   0.000   0.000
  0.000   0.000   0.000   0.000   0.000   0.000   0.000   0.000
 total augmentation occupancy for first ion, spin component:           2
  0.500   0.000   0.000   0.000   0.000   0.000   0.000   0.000
  0.000   0.000   0.000   0.000   0.000   0.000   0.000   0.000
  0.000   0.000   0.167   0.000   0.000   0.000   0.000   0.000
  0.000   0.000   0.000   0.167   0.000   0.000   0.000   0.000
  0.000   0.000   0.000   0.000   0.167   0.000   0.000   0.000
  0.000   0.000   0.000   0.000   0.000   0.000   0.000   0.000
  0.000   0.000   0.000   0.000   0.000   0.000   0.000   0.000
  0.000   0.000   0.000   0.000   0.000   0.000   0.000   0.000
 total augmentation occupancy for first ion, spin component:           3
  0.500   0.000   0.000   0.000   0.000   0.000   0.000   0.000
  0.000   0.000   0.000   0.000   0.000   0.000   0.000   0.000
  0.000   0.000   0.167   0.000   0.000   0.000   0.000   0.000
  0.000   0.000   0.000   0.167   0.000   0.000   0.000   0.000
  0.000   0.000   0.000   0.000   0.167   0.000   0.000   0.000
  0.000   0.000   0.000   0.000   0.000   0.000   0.000   0.000
  0.000   0.000   0.000   0.000   0.000   0.000   0.000   0.000
  0.000   0.000   0.000   0.000   0.000   0.000   0.000   0.000
 total augmentation occupancy for first ion, spin component:           4
  0.500   0.000   0.000   0.000   0.000   0.000   0.000   0.000
  0.000   0.000   0.000   0.000   0.000   0.000   0.000   0.000
  0.000   0.000   0.167   0.000   0.000   0.000   0.000   0.000
  0.000   0.000   0.000   0.167   0.000   0.000   0.000   0.000
  0.000   0.000   0.000   0.000   0.167   0.000   0.000   0.000
  0.000   0.000   0.000   0.000   0.000   0.000   0.000   0.000
  0.000   0.000   0.000   0.000   0.000   0.000   0.000   0.000
  0.000   0.000   0.000   0.000   0.000   0.000   0.000   0.000


------------------------ aborting loop because EDIFF is reached ----------------------------------------


 


 total charge     
 
# of ion     s       p       d       tot
----------------------------------------
  1        0.872   1.793   0.000   2.665
  2        0.872   1.793   0.000   2.665
  3        0.872   1.793   0.000   2.665
  4        0.872   1.793   0.000   2.664
  5        0.872   1.793   0.000   2.664
  6        0.872   1.793   0.000   2.664
------------------------------------------------
tot        5.231  10.756   0.000  15.987
 


 magnetization (x)
 
# of ion     s       p       d       tot
----------------------------------------
  1       -0.000  -0.000   0.000  -0.000
  2        0.000   0.000   0.000   0.000
  3        0.000  -0.000   0.000  -0.000
  4        0.000  -0.000   0.000  -0.000
  5        0.000   0.000   0.000   0.000
  6        0.000   0.000   0.000   0.000
------------------------------------------------
tot       -0.000   0.000   0.000   0.000
 


 magnetization (y)
 
# of ion     s       p       d       tot
----------------------------------------
  1       -0.000  -0.000   0.000  -0.000
  2       -0.000   0.000   0.000   0.000
  3        0.000   0.000   0.000   0.000
  4        0.000   0.000   0.000   0.000
  5       -0.000   0.000   0.000  -0.000
  6       -0.000  -0.000   0.000  -0.000
------------------------------------------------
tot       -0.000  -0.000   0.000  -0.000
 


 magnetization (z)
 
# of ion     s       p       d       tot
----------------------------------------
  1       -0.000  -0.002   0.000  -0.002
  2       -0.000  -0.001   0.000  -0.001
  3       -0.000  -0.001   0.000  -0.001
  4       -0.000  -0.002   0.000  -0.002
  5       -0.000  -0.002   0.000  -0.002
  6       -0.000  -0.001   0.000  -0.001
------------------------------------------------
tot       -0.000  -0.008   0.000  -0.008
 
    CHARGE:  cpu time    0.2789: real time    0.2790
    FORLOC:  cpu time    0.0025: real time    0.0025
    FORNL :  cpu time    1.0990: real time    1.0994
    STRESS:  cpu time    3.1973: real time    3.1984
    FORCOR:  cpu time    0.1404: real time    0.1405
    FORHAR:  cpu time    0.0143: real time    0.0144
    OFIELD:  cpu time    0.0023: real time    0.0023

  DFT-D2 method for vdW energy calculation
  -------------------------------------------------------------------

  Parameters of vdW forcefield:
         C6(Jnm^6/mol)     R0(A)
   -----------------------------
   C        1.750          1.452

  IVDW =  10
  VDW_RADIUS =    50.000 A
  VDW_S6 =     0.750
  VDW_SR =     1.000
  VDW_D =    20.000
  LVDW_EWALD = F

  Number of pair interactions contributing to vdW energy:   35754
  Edisp (eV):   -0.32513
    FORVDW:  cpu time    0.0116: real time    0.0119

  FORCE on cell =-STRESS in cart. coord.  units (eV):
  Direction    XX          YY          ZZ          XY          YZ          ZX
  --------------------------------------------------------------------------------------
  Alpha Z     9.37521     9.37521     9.37521
  Ewald    4699.80884  4699.80884 -5507.12983    -0.00000    -0.00000     0.00000
  Hartree  4601.60255  4601.08504 -4567.00610     0.70576     0.00000    -0.00000
  E(xc)     -89.16999   -89.16631   -92.51968    -0.00260    -0.00000     0.00000
  Local   -9558.68339 -9556.65408  9765.42807    -2.16377    -0.00001     0.00000
  n-local   -21.19752   -20.82571   -19.91867    -0.83441    -0.00000     0.00000
  augment    -2.32641    -2.33123    -2.13411     0.00599     0.00000    -0.00000
  Kinetic   363.22985   363.14180   413.86780     2.92343     0.00002    -0.00000
  Fock        0.00000     0.00000     0.00000     0.00000     0.00000     0.00000
  vdW        -0.01849    -0.01849    -0.00127    -0.00000    -0.00000    -0.00000
  -------------------------------------------------------------------------------------
  Total       2.62063     4.41507    -0.03858     0.63440     0.00000    -0.00000
  in kB      13.31083    22.42521    -0.19597     3.22228     0.00000    -0.00000
  external pressure =       11.85 kB  Pullay stress =        0.00 kB


 VOLUME and BASIS-vectors are now :
 -----------------------------------------------------------------------------
  energy-cutoff  :      400.00
  volume of cell :      315.44
      direct lattice vectors                 reciprocal lattice vectors
     4.267520463  0.000000000  0.000000000     0.234328109  0.135289397  0.000000000
    -2.133760231  3.695781132  0.000000000     0.000000000  0.270578794  0.000000000
     0.000000000  0.000000000 20.000000000     0.000000000  0.000000000  0.050000000

  length of vectors
     4.267520463  4.267520463 20.000000000     0.270578794  0.270578794  0.050000000


 FORCES acting on ions
    electron-ion (+dipol)            ewald-force                    non-local-force                 convergence-correction
 -----------------------------------------------------------------------------------------------
   0.462E+00 -.131E+01 -.479E-05   -.992E-09 -.142E-13 -.665E-20   0.219E+00 -.370E+00 0.716E-05   -.129E+00 0.350E+00 -.112E-05
   -.461E+00 0.131E+01 0.230E-05   0.983E-09 -.987E-11 -.119E-19   -.220E+00 0.370E+00 -.131E-08   0.128E+00 -.349E+00 -.303E-05
   -.464E+00 0.131E+01 0.989E-05   0.988E-09 -.132E-10 -.652E-21   -.220E+00 0.370E+00 -.298E-05   0.130E+00 -.351E+00 -.429E-05
   0.457E+00 -.131E+01 -.185E-05   -.101E-08 0.989E-11 0.545E-20   0.219E+00 -.370E+00 0.747E-05   -.125E+00 0.351E+00 -.701E-05
   0.465E+00 -.131E+01 -.281E-04   -.975E-09 -.983E-11 0.328E-20   0.220E+00 -.371E+00 0.216E-05   -.131E+00 0.354E+00 0.234E-04
   -.459E+00 0.131E+01 0.116E-05   0.101E-08 0.230E-10 0.105E-19   -.219E+00 0.371E+00 -.116E-05   0.126E+00 -.355E+00 -.542E-06
 -----------------------------------------------------------------------------------------------
   0.110E-04 -.164E-04 -.214E-04   -.601E-14 -.433E-14 -.150E-35   -.236E-04 0.145E-04 0.127E-04   -.347E-05 0.930E-05 0.738E-05
 
 
 POSITION                                       TOTAL-FORCE (eV/Angst)
 -----------------------------------------------------------------------------------
      0.00000      0.00000      0.00000         0.552703     -1.327281      0.000001
     -0.71125      1.23193      0.00000        -0.552719      1.326843     -0.000001
      1.42251      0.00000      0.00000        -0.553163      1.327029      0.000003
      0.00000      2.46385      0.00000         0.551521     -1.327116     -0.000001
      2.13376      1.23193      0.00000         0.553637     -1.328253     -0.000002
      1.42251      2.46385      0.00000        -0.551979      1.328779     -0.000000
 -----------------------------------------------------------------------------------
    total drift:                               -0.000016      0.000007     -0.000001


--------------------------------------------------------------------------------------------------------



  FREE ENERGIE OF THE ION-ELECTRON SYSTEM (eV)
  ---------------------------------------------------
  free  energy   TOTEN  =       -53.66030737 eV

  energy  without entropy=      -53.65975567  energy(sigma->0) =      -53.66003152
 


--------------------------------------------------------------------------------------------------------


    POTLOK:  cpu time    0.5785: real time    0.5789


--------------------------------------------------------------------------------------------------------


     LOOP+:  cpu time   24.8289: real time   25.1690
    4ORBIT:  cpu time    0.0000: real time    0.0000

 Spin-Orbit-Coupling matrix elements

 Ion:    1  E_soc:     -0.0000135
 l=   1
     0.0000000    -0.0000024    -0.0000019
    -0.0000024     0.0000000    -0.0000025
    -0.0000019    -0.0000025     0.0000000
 l=   2
     0.0000000     0.0000000     0.0000000     0.0000000     0.0000000
     0.0000000     0.0000000     0.0000000     0.0000000     0.0000000
     0.0000000     0.0000000     0.0000000     0.0000000     0.0000000
     0.0000000     0.0000000     0.0000000     0.0000000     0.0000000
     0.0000000     0.0000000     0.0000000     0.0000000     0.0000000
 l=   3
     0.0000000     0.0000000     0.0000000     0.0000000     0.0000000     0.0000000     0.0000000
     0.0000000     0.0000000     0.0000000     0.0000000     0.0000000     0.0000000     0.0000000
     0.0000000     0.0000000     0.0000000     0.0000000     0.0000000     0.0000000     0.0000000
     0.0000000     0.0000000     0.0000000     0.0000000     0.0000000     0.0000000     0.0000000
     0.0000000     0.0000000     0.0000000     0.0000000     0.0000000     0.0000000     0.0000000
     0.0000000     0.0000000     0.0000000     0.0000000     0.0000000     0.0000000     0.0000000
     0.0000000     0.0000000     0.0000000     0.0000000     0.0000000     0.0000000     0.0000000

 Ion:    2  E_soc:     -0.0000135
 l=   1
     0.0000000    -0.0000024    -0.0000019
    -0.0000024     0.0000000    -0.0000025
    -0.0000019    -0.0000025     0.0000000
 l=   2
     0.0000000     0.0000000     0.0000000     0.0000000     0.0000000
     0.0000000     0.0000000     0.0000000     0.0000000     0.0000000
     0.0000000     0.0000000     0.0000000     0.0000000     0.0000000
     0.0000000     0.0000000     0.0000000     0.0000000     0.0000000
     0.0000000     0.0000000     0.0000000     0.0000000     0.0000000
 l=   3
     0.0000000     0.0000000     0.0000000     0.0000000     0.0000000     0.0000000     0.0000000
     0.0000000     0.0000000     0.0000000     0.0000000     0.0000000     0.0000000     0.0000000
     0.0000000     0.0000000     0.0000000     0.0000000     0.0000000     0.0000000     0.0000000
     0.0000000     0.0000000     0.0000000     0.0000000     0.0000000     0.0000000     0.0000000
     0.0000000     0.0000000     0.0000000     0.0000000     0.0000000     0.0000000     0.0000000
     0.0000000     0.0000000     0.0000000     0.0000000     0.0000000     0.0000000     0.0000000
     0.0000000     0.0000000     0.0000000     0.0000000     0.0000000     0.0000000     0.0000000

 Ion:    3  E_soc:     -0.0000135
 l=   1
     0.0000000    -0.0000024    -0.0000019
    -0.0000024     0.0000000    -0.0000025
    -0.0000019    -0.0000025     0.0000000
 l=   2
     0.0000000     0.0000000     0.0000000     0.0000000     0.0000000
     0.0000000     0.0000000     0.0000000     0.0000000     0.0000000
     0.0000000     0.0000000     0.0000000     0.0000000     0.0000000
     0.0000000     0.0000000     0.0000000     0.0000000     0.0000000
     0.0000000     0.0000000     0.0000000     0.0000000     0.0000000
 l=   3
     0.0000000     0.0000000     0.0000000     0.0000000     0.0000000     0.0000000     0.0000000
     0.0000000     0.0000000     0.0000000     0.0000000     0.0000000     0.0000000     0.0000000
     0.0000000     0.0000000     0.0000000     0.0000000     0.0000000     0.0000000     0.0000000
     0.0000000     0.0000000     0.0000000     0.0000000     0.0000000     0.0000000     0.0000000
     0.0000000     0.0000000     0.0000000     0.0000000     0.0000000     0.0000000     0.0000000
     0.0000000     0.0000000     0.0000000     0.0000000     0.0000000     0.0000000     0.0000000
     0.0000000     0.0000000     0.0000000     0.0000000     0.0000000     0.0000000     0.0000000

 Ion:    4  E_soc:     -0.0000135
 l=   1
     0.0000000    -0.0000024    -0.0000019
    -0.0000024     0.0000000    -0.0000025
    -0.0000019    -0.0000025     0.0000000
 l=   2
     0.0000000     0.0000000     0.0000000     0.0000000     0.0000000
     0.0000000     0.0000000     0.0000000     0.0000000     0.0000000
     0.0000000     0.0000000     0.0000000     0.0000000     0.0000000
     0.0000000     0.0000000     0.0000000     0.0000000     0.0000000
     0.0000000     0.0000000     0.0000000     0.0000000     0.0000000
 l=   3
     0.0000000     0.0000000     0.0000000     0.0000000     0.0000000     0.0000000     0.0000000
     0.0000000     0.0000000     0.0000000     0.0000000     0.0000000     0.0000000     0.0000000
     0.0000000     0.0000000     0.0000000     0.0000000     0.0000000     0.0000000     0.0000000
     0.0000000     0.0000000     0.0000000     0.0000000     0.0000000     0.0000000     0.0000000
     0.0000000     0.0000000     0.0000000     0.0000000     0.0000000     0.0000000     0.0000000
     0.0000000     0.0000000     0.0000000     0.0000000     0.0000000     0.0000000     0.0000000
     0.0000000     0.0000000     0.0000000     0.0000000     0.0000000     0.0000000     0.0000000

 Ion:    5  E_soc:     -0.0000135
 l=   1
     0.0000000    -0.0000024    -0.0000019
    -0.0000024     0.0000000    -0.0000025
    -0.0000019    -0.0000025     0.0000000
 l=   2
     0.0000000     0.0000000     0.0000000     0.0000000     0.0000000
     0.0000000     0.0000000     0.0000000     0.0000000     0.0000000
     0.0000000     0.0000000     0.0000000     0.0000000     0.0000000
     0.0000000     0.0000000     0.0000000     0.0000000     0.0000000
     0.0000000     0.0000000     0.0000000     0.0000000     0.0000000
 l=   3
     0.0000000     0.0000000     0.0000000     0.0000000     0.0000000     0.0000000     0.0000000
     0.0000000     0.0000000     0.0000000     0.0000000     0.0000000     0.0000000     0.0000000
     0.0000000     0.0000000     0.0000000     0.0000000     0.0000000     0.0000000     0.0000000
     0.0000000     0.0000000     0.0000000     0.0000000     0.0000000     0.0000000     0.0000000
     0.0000000     0.0000000     0.0000000     0.0000000     0.0000000     0.0000000     0.0000000
     0.0000000     0.0000000     0.0000000     0.0000000     0.0000000     0.0000000     0.0000000
     0.0000000     0.0000000     0.0000000     0.0000000     0.0000000     0.0000000     0.0000000

 Ion:    6  E_soc:     -0.0000135
 l=   1
     0.0000000    -0.0000024    -0.0000019
    -0.0000024     0.0000000    -0.0000025
    -0.0000019    -0.0000025     0.0000000
 l=   2
     0.0000000     0.0000000     0.0000000     0.0000000     0.0000000
     0.0000000     0.0000000     0.0000000     0.0000000     0.0000000
     0.0000000     0.0000000     0.0000000     0.0000000     0.0000000
     0.0000000     0.0000000     0.0000000     0.0000000     0.0000000
     0.0000000     0.0000000     0.0000000     0.0000000     0.0000000
 l=   3
     0.0000000     0.0000000     0.0000000     0.0000000     0.0000000     0.0000000     0.0000000
     0.0000000     0.0000000     0.0000000     0.0000000     0.0000000     0.0000000     0.0000000
     0.0000000     0.0000000     0.0000000     0.0000000     0.0000000     0.0000000     0.0000000
     0.0000000     0.0000000     0.0000000     0.0000000     0.0000000     0.0000000     0.0000000
     0.0000000     0.0000000     0.0000000     0.0000000     0.0000000     0.0000000     0.0000000
     0.0000000     0.0000000     0.0000000     0.0000000     0.0000000     0.0000000     0.0000000
     0.0000000     0.0000000     0.0000000     0.0000000     0.0000000     0.0000000     0.0000000
 


 total charge     
 
# of ion     s       p       d       tot
----------------------------------------
  1        0.872   1.793   0.000   2.665
  2        0.872   1.793   0.000   2.665
  3        0.872   1.793   0.000   2.665
  4        0.872   1.793   0.000   2.664
  5        0.872   1.793   0.000   2.664
  6        0.872   1.793   0.000   2.664
------------------------------------------------
tot        5.231  10.756   0.000  15.987
 


 magnetization (x)
 
# of ion     s       p       d       tot
----------------------------------------
  1       -0.000  -0.000   0.000  -0.000
  2        0.000   0.000   0.000   0.000
  3        0.000  -0.000   0.000  -0.000
  4        0.000  -0.000   0.000  -0.000
  5        0.000   0.000   0.000   0.000
  6        0.000   0.000   0.000   0.000
------------------------------------------------
tot       -0.000   0.000   0.000   0.000
 


 magnetization (y)
 
# of ion     s       p       d       tot
----------------------------------------
  1       -0.000  -0.000   0.000  -0.000
  2       -0.000   0.000   0.000   0.000
  3        0.000   0.000   0.000   0.000
  4        0.000   0.000   0.000   0.000
  5       -0.000   0.000   0.000  -0.000
  6       -0.000  -0.000   0.000  -0.000
------------------------------------------------
tot       -0.000  -0.000   0.000  -0.000
 


 magnetization (z)
 
# of ion     s       p       d       tot
----------------------------------------
  1       -0.000  -0.002   0.000  -0.002
  2       -0.000  -0.001   0.000  -0.001
  3       -0.000  -0.001   0.000  -0.001
  4       -0.000  -0.002   0.000  -0.002
  5       -0.000  -0.002   0.000  -0.002
  6       -0.000  -0.001   0.000  -0.001
------------------------------------------------
tot       -0.000  -0.008   0.000  -0.008
 

 total amount of memory used by VASP on root node    85395. kBytes
========================================================================

   base      :      30000. kBytes
   nonl-proj :       1491. kBytes
   fftplans  :      13752. kBytes
   grid      :      11540. kBytes
   one-center:         12. kBytes
   wavefun   :      28600. kBytes
 
  
  
 General timing and accounting informations for this job:
 ========================================================
  
                  Total CPU time used (sec):       32.667
                            User time (sec):       31.674
                          System time (sec):        0.993
                         Elapsed time (sec):       33.862
  
                   Maximum memory used (kb):      171232.
                   Average memory used (kb):           0.
  
                          Minor page faults:        45911
                          Major page faults:            0
                 Voluntary context switches:         1838
