PROCAR new format
# of k-points:   80         # of bands:  38         # of ions:   6

 k-point    1 :    0.50000000 0.00000000 0.00000000     weight = 0.01250000

band   1 # energy  -20.33875991 # occ.  1.00000000
 
ion      s      p      d    tot
  1  0.194  0.000  0.000  0.194
  2  0.194  0.000  0.000  0.194
  3  0.036  0.022  0.000  0.058
  4  0.036  0.022  0.000  0.058
  5  0.063  0.018  0.000  0.081
  6  0.063  0.018  0.000  0.081
tot  0.586  0.081  0.000  0.667
  1 -0.000  0.000  0.000 -0.000
  2 -0.000  0.000  0.000 -0.000
  3 -0.000  0.000  0.000  0.000
  4 -0.000  0.000  0.000 -0.000
  5  0.000  0.000  0.000  0.000
  6 -0.000  0.000  0.000 -0.000
tot -0.000  0.000  0.000 -0.000
  1 -0.000  0.000  0.000 -0.000
  2 -0.000 -0.000  0.000 -0.000
  3 -0.000  0.000  0.000 -0.000
  4 -0.000 -0.000  0.000 -0.000
  5 -0.000  0.000  0.000 -0.000
  6 -0.000 -0.000  0.000 -0.000
tot -0.000  0.000  0.000 -0.000
  1 -0.194 -0.000  0.000 -0.194
  2 -0.194 -0.000  0.000 -0.194
  3 -0.036 -0.022  0.000 -0.058
  4 -0.036 -0.022  0.000 -0.058
  5 -0.063 -0.018  0.000 -0.081
  6 -0.063 -0.018  0.000 -0.081
tot -0.586 -0.081  0.000 -0.667
 
band   2 # energy  -20.33856389 # occ.  1.00000000
 
ion      s      p      d    tot
  1  0.001  0.027  0.000  0.028
  2  0.001  0.027  0.000  0.028
  3  0.159  0.005  0.000  0.164
  4  0.159  0.005  0.000  0.164
  5  0.132  0.009  0.000  0.141
  6  0.132  0.009  0.000  0.141
tot  0.586  0.081  0.000  0.667
  1 -0.000 -0.000  0.000 -0.000
  2  0.000  0.000  0.000  0.000
  3  0.000 -0.000  0.000  0.000
  4 -0.000  0.000  0.000 -0.000
  5  0.000  0.000  0.000  0.000
  6  0.000  0.000  0.000  0.000
tot -0.000  0.000  0.000  0.000
  1  0.000  0.000  0.000  0.000
  2 -0.000 -0.000  0.000 -0.000
  3 -0.000  0.000  0.000 -0.000
  4  0.000 -0.000  0.000  0.000
  5  0.000 -0.000  0.000  0.000
  6  0.000  0.000  0.000  0.000
tot  0.000 -0.000  0.000  0.000
  1 -0.001 -0.027  0.000 -0.028
  2 -0.001 -0.027  0.000 -0.028
  3 -0.159 -0.005  0.000 -0.164
  4 -0.159 -0.005  0.000 -0.164
  5 -0.132 -0.009  0.000 -0.141
  6 -0.132 -0.009  0.000 -0.141
tot -0.586 -0.081  0.000 -0.667
 
band   3 # energy  -20.33773014 # occ.  1.00000000
 
ion      s      p      d    tot
  1  0.136  0.008  0.000  0.144
  2  0.136  0.008  0.000  0.144
  3  0.156  0.005  0.000  0.161
  4  0.156  0.005  0.000  0.161
  5  0.001  0.027  0.000  0.028
  6  0.001  0.027  0.000  0.028
tot  0.586  0.081  0.000  0.667
  1 -0.000  0.000  0.000 -0.000
  2 -0.000 -0.000  0.000 -0.000
  3 -0.000  0.000  0.000 -0.000
  4 -0.000  0.000  0.000 -0.000
  5  0.000 -0.000  0.000 -0.000
  6  0.000  0.000  0.000  0.000
tot -0.000  0.000  0.000 -0.000
  1  0.000  0.000  0.000  0.000
  2  0.000 -0.000  0.000  0.000
  3 -0.000 -0.000  0.000 -0.000
  4  0.000  0.000  0.000  0.000
  5 -0.000 -0.000  0.000 -0.000
  6 -0.000 -0.000  0.000 -0.000
tot  0.000 -0.000  0.000  0.000
  1  0.136  0.008  0.000  0.144
  2  0.136  0.008  0.000  0.144
  3  0.156  0.005  0.000  0.161
  4  0.156  0.005  0.000  0.161
  5  0.001  0.027  0.000  0.028
  6  0.001  0.027  0.000  0.028
tot  0.586  0.081  0.000  0.667
 
band   4 # energy  -20.33765617 # occ.  1.00000000
 
ion      s      p      d    tot
  1  0.059  0.019  0.000  0.078
  2  0.059  0.019  0.000  0.078
  3  0.039  0.022  0.000  0.061
  4  0.039  0.022  0.000  0.061
  5  0.195  0.000  0.000  0.195
  6  0.194  0.000  0.000  0.195
tot  0.586  0.081  0.000  0.667
  1 -0.000 -0.000  0.000 -0.000
  2  0.000 -0.000  0.000 -0.000
  3 -0.000 -0.000  0.000 -0.000
  4  0.000  0.000  0.000  0.000
  5  0.000  0.000  0.000  0.000
  6  0.000  0.000  0.000  0.000
tot -0.000 -0.000  0.000 -0.000
  1 -0.000 -0.000  0.000 -0.000
  2 -0.000 -0.000  0.000 -0.000
  3  0.000 -0.000  0.000  0.000
  4  0.000 -0.000  0.000  0.000
  5 -0.000  0.000  0.000 -0.000
  6  0.000  0.000  0.000  0.000
tot -0.000 -0.000  0.000 -0.000
  1  0.059  0.019  0.000  0.078
  2  0.059  0.019  0.000  0.078
  3  0.039  0.022  0.000  0.061
  4  0.039  0.022  0.000  0.061
  5  0.195  0.000  0.000  0.195
  6  0.194  0.000  0.000  0.195
tot  0.586  0.081  0.000  0.667
 
band   5 # energy  -17.03659233 # occ.  1.00000000
 
ion      s      p      d    tot
  1  0.100  0.021  0.000  0.121
  2  0.100  0.021  0.000  0.121
  3  0.100  0.021  0.000  0.121
  4  0.100  0.021  0.000  0.121
  5  0.100  0.021  0.000  0.121
  6  0.100  0.021  0.000  0.121
tot  0.600  0.127  0.000  0.728
  1 -0.000 -0.000  0.000 -0.000
  2 -0.000 -0.000  0.000 -0.000
  3  0.000 -0.000  0.000  0.000
  4  0.000 -0.000  0.000  0.000
  5  0.000  0.000  0.000  0.000
  6  0.000  0.000  0.000  0.000
tot  0.000  0.000  0.000  0.000
  1 -0.000 -0.000  0.000 -0.000
  2 -0.000 -0.000  0.000 -0.000
  3 -0.000 -0.000  0.000 -0.000
  4 -0.000 -0.000  0.000 -0.000
  5 -0.000 -0.000  0.000 -0.000
  6  0.000 -0.000  0.000 -0.000
tot -0.000 -0.000  0.000 -0.000
  1 -0.100 -0.021  0.000 -0.121
  2 -0.100 -0.021  0.000 -0.121
  3 -0.100 -0.021  0.000 -0.121
  4 -0.100 -0.021  0.000 -0.121
  5 -0.100 -0.021  0.000 -0.121
  6 -0.100 -0.021  0.000 -0.121
tot -0.600 -0.127  0.000 -0.728
 
band   6 # energy  -17.03551919 # occ.  1.00000000
 
ion      s      p      d    tot
  1  0.100  0.021  0.000  0.121
  2  0.100  0.021  0.000  0.121
  3  0.100  0.021  0.000  0.121
  4  0.100  0.021  0.000  0.121
  5  0.100  0.021  0.000  0.121
  6  0.100  0.021  0.000  0.121
tot  0.600  0.127  0.000  0.728
  1 -0.000 -0.000  0.000 -0.000
  2 -0.000  0.000  0.000  0.000
  3 -0.000 -0.000  0.000 -0.000
  4 -0.000 -0.000  0.000 -0.000
  5 -0.000 -0.000  0.000 -0.000
  6 -0.000 -0.000  0.000 -0.000
tot -0.000 -0.000  0.000 -0.000
  1  0.000 -0.000  0.000  0.000
  2  0.000  0.000  0.000  0.000
  3  0.000  0.000  0.000  0.000
  4  0.000  0.000  0.000  0.000
  5  0.000  0.000  0.000  0.000
  6  0.000 -0.000  0.000  0.000
tot  0.000 -0.000  0.000  0.000
  1  0.100  0.021  0.000  0.121
  2  0.100  0.021  0.000  0.121
  3  0.100  0.021  0.000  0.121
  4  0.100  0.021  0.000  0.121
  5  0.100  0.021  0.000  0.121
  6  0.100  0.021  0.000  0.121
tot  0.600  0.127  0.000  0.728
 
band   7 # energy  -16.00028539 # occ.  1.00000000
 
ion      s      p      d    tot
  1  0.046  0.066  0.000  0.112
  2  0.046  0.066  0.000  0.112
  3  0.046  0.066  0.000  0.112
  4  0.046  0.066  0.000  0.112
  5  0.046  0.066  0.000  0.112
  6  0.046  0.066  0.000  0.112
tot  0.276  0.393  0.000  0.670
  1 -0.000 -0.000  0.000 -0.000
  2 -0.000 -0.000  0.000 -0.000
  3  0.000 -0.000  0.000 -0.000
  4  0.000 -0.000  0.000 -0.000
  5 -0.000 -0.000  0.000 -0.000
  6 -0.000  0.000  0.000  0.000
tot -0.000 -0.000  0.000 -0.000
  1  0.000  0.000  0.000  0.000
  2  0.000  0.000  0.000  0.000
  3  0.000  0.000  0.000  0.000
  4  0.000  0.000  0.000  0.000
  5  0.000  0.000  0.000  0.000
  6  0.000  0.000  0.000  0.000
tot  0.000  0.000  0.000  0.000
  1 -0.046 -0.066  0.000 -0.112
  2 -0.046 -0.066  0.000 -0.112
  3 -0.046 -0.066  0.000 -0.112
  4 -0.046 -0.066  0.000 -0.112
  5 -0.046 -0.066  0.000 -0.112
  6 -0.046 -0.066  0.000 -0.112
tot -0.276 -0.393  0.000 -0.670
 
band   8 # energy  -15.99964355 # occ.  1.00000000
 
ion      s      p      d    tot
  1  0.046  0.066  0.000  0.112
  2  0.046  0.066  0.000  0.112
  3  0.046  0.066  0.000  0.112
  4  0.046  0.066  0.000  0.112
  5  0.046  0.066  0.000  0.112
  6  0.046  0.066  0.000  0.112
tot  0.276  0.393  0.000  0.670
  1  0.000  0.000  0.000  0.000
  2  0.000 -0.000  0.000  0.000
  3  0.000  0.000  0.000  0.000
  4  0.000  0.000  0.000  0.000
  5  0.000  0.000  0.000  0.000
  6  0.000  0.000  0.000  0.000
tot  0.000  0.000  0.000  0.000
  1 -0.000 -0.000  0.000 -0.000
  2 -0.000 -0.000  0.000 -0.000
  3 -0.000 -0.000  0.000 -0.000
  4 -0.000 -0.000  0.000 -0.000
  5 -0.000 -0.000  0.000 -0.000
  6 -0.000 -0.000  0.000 -0.000
tot -0.000 -0.000  0.000 -0.000
  1  0.046  0.066  0.000  0.112
  2  0.046  0.066  0.000  0.112
  3  0.046  0.066  0.000  0.112
  4  0.046  0.066  0.000  0.112
  5  0.046  0.066  0.000  0.112
  6  0.046  0.066  0.000  0.112
tot  0.276  0.393  0.000  0.670
 
band   9 # energy  -10.51987601 # occ.  1.00000000
 
ion      s      p      d    tot
  1  0.019  0.120  0.000  0.139
  2  0.019  0.120  0.000  0.139
  3  0.081  0.031  0.000  0.112
  4  0.081  0.031  0.000  0.111
  5  0.022  0.116  0.000  0.138
  6  0.022  0.116  0.000  0.138
tot  0.243  0.533  0.000  0.776
  1 -0.000  0.000  0.000  0.000
  2 -0.000  0.000  0.000  0.000
  3  0.000  0.000  0.000  0.000
  4  0.000  0.000  0.000  0.000
  5  0.000 -0.000  0.000  0.000
  6  0.000 -0.000  0.000  0.000
tot  0.000  0.000  0.000  0.000
  1  0.000 -0.000  0.000 -0.000
  2  0.000 -0.000  0.000 -0.000
  3 -0.000 -0.000  0.000 -0.000
  4 -0.000 -0.000  0.000 -0.000
  5 -0.000 -0.000  0.000 -0.000
  6 -0.000 -0.000  0.000 -0.000
tot -0.000 -0.000  0.000 -0.000
  1 -0.019 -0.120  0.000 -0.139
  2 -0.019 -0.120  0.000 -0.139
  3 -0.081 -0.031  0.000 -0.112
  4 -0.081 -0.031  0.000 -0.111
  5 -0.022 -0.116  0.000 -0.138
  6 -0.022 -0.116  0.000 -0.138
tot -0.243 -0.533  0.000 -0.776
 
band  10 # energy  -10.51979413 # occ.  1.00000000
 
ion      s      p      d    tot
  1  0.062  0.058  0.000  0.120
  2  0.062  0.058  0.000  0.120
  3  0.000  0.147  0.000  0.147
  4  0.000  0.147  0.000  0.147
  5  0.059  0.062  0.000  0.121
  6  0.059  0.062  0.000  0.121
tot  0.243  0.533  0.000  0.776
  1 -0.000  0.000  0.000  0.000
  2 -0.000  0.000  0.000 -0.000
  3 -0.000 -0.000  0.000 -0.000
  4 -0.000 -0.000  0.000 -0.000
  5  0.000 -0.000  0.000  0.000
  6  0.000 -0.000  0.000 -0.000
tot -0.000 -0.000  0.000 -0.000
  1  0.000 -0.000  0.000 -0.000
  2  0.000 -0.000  0.000 -0.000
  3  0.000 -0.000  0.000 -0.000
  4  0.000 -0.000  0.000 -0.000
  5 -0.000  0.000  0.000  0.000
  6 -0.000  0.000  0.000 -0.000
tot -0.000 -0.000  0.000 -0.000
  1 -0.062 -0.058  0.000 -0.120
  2 -0.062 -0.058  0.000 -0.120
  3 -0.000 -0.147  0.000 -0.147
  4 -0.000 -0.147  0.000 -0.147
  5 -0.059 -0.062  0.000 -0.121
  6 -0.059 -0.062  0.000 -0.121
tot -0.243 -0.533  0.000 -0.776
 
band  11 # energy  -10.51921336 # occ.  1.00000000
 
ion      s      p      d    tot
  1  0.012  0.129  0.000  0.142
  2  0.012  0.129  0.000  0.142
  3  0.029  0.105  0.000  0.134
  4  0.029  0.105  0.000  0.134
  5  0.080  0.032  0.000  0.112
  6  0.080  0.032  0.000  0.112
tot  0.243  0.533  0.000  0.776
  1  0.000 -0.000  0.000 -0.000
  2 -0.000 -0.000  0.000 -0.000
  3 -0.000 -0.000  0.000 -0.000
  4 -0.000 -0.000  0.000 -0.000
  5 -0.000 -0.000  0.000 -0.000
  6 -0.000 -0.000  0.000 -0.000
tot -0.000 -0.000  0.000 -0.000
  1  0.000  0.000  0.000  0.000
  2  0.000  0.000  0.000  0.000
  3  0.000  0.000  0.000  0.000
  4  0.000  0.000  0.000  0.000
  5  0.000  0.000  0.000  0.000
  6  0.000  0.000  0.000  0.000
tot  0.000  0.000  0.000  0.000
  1  0.012  0.129  0.000  0.142
  2  0.012  0.129  0.000  0.142
  3  0.029  0.105  0.000  0.134
  4  0.029  0.105  0.000  0.134
  5  0.080  0.032  0.000  0.112
  6  0.080  0.032  0.000  0.112
tot  0.243  0.533  0.000  0.776
 
band  12 # energy  -10.51907574 # occ.  1.00000000
 
ion      s      p      d    tot
  1  0.069  0.048  0.000  0.117
  2  0.069  0.048  0.000  0.117
  3  0.052  0.073  0.000  0.124
  4  0.052  0.073  0.000  0.124
  5  0.001  0.145  0.000  0.147
  6  0.001  0.145  0.000  0.147
tot  0.243  0.533  0.000  0.776
  1  0.000  0.000  0.000  0.000
  2  0.000  0.000  0.000  0.000
  3  0.000  0.000  0.000  0.000
  4  0.000  0.000  0.000  0.000
  5  0.000  0.000  0.000  0.000
  6  0.000  0.000  0.000  0.000
tot  0.000  0.000  0.000  0.000
  1 -0.000  0.000  0.000 -0.000
  2 -0.000  0.000  0.000 -0.000
  3  0.000 -0.000  0.000 -0.000
  4  0.000 -0.000  0.000 -0.000
  5 -0.000 -0.000  0.000 -0.000
  6 -0.000 -0.000  0.000 -0.000
tot -0.000 -0.000  0.000 -0.000
  1  0.069  0.048  0.000  0.117
  2  0.069  0.048  0.000  0.117
  3  0.052  0.073  0.000  0.124
  4  0.052  0.073  0.000  0.124
  5  0.001  0.145  0.000  0.147
  6  0.001  0.145  0.000  0.147
tot  0.243  0.533  0.000  0.776
 
band  13 # energy   -9.17157132 # occ.  1.00000000
 
ion      s      p      d    tot
  1  0.000  0.141  0.000  0.141
  2  0.000  0.141  0.000  0.141
  3  0.000  0.130  0.000  0.130
  4  0.000  0.130  0.000  0.130
  5  0.000  0.122  0.000  0.122
  6  0.000  0.122  0.000  0.122
tot  0.000  0.787  0.000  0.787
  1 -0.000 -0.000  0.000 -0.000
  2 -0.000 -0.000  0.000 -0.000
  3  0.000 -0.000  0.000 -0.000
  4  0.000 -0.000  0.000 -0.000
  5  0.000 -0.000  0.000 -0.000
  6  0.000 -0.000  0.000 -0.000
tot  0.000 -0.000  0.000 -0.000
  1  0.000 -0.000  0.000 -0.000
  2  0.000 -0.000  0.000 -0.000
  3  0.000 -0.000  0.000 -0.000
  4 -0.000 -0.000  0.000 -0.000
  5 -0.000 -0.000  0.000 -0.000
  6  0.000 -0.000  0.000 -0.000
tot  0.000 -0.000  0.000 -0.000
  1 -0.000 -0.141  0.000 -0.141
  2 -0.000 -0.141  0.000 -0.141
  3 -0.000 -0.130  0.000 -0.130
  4 -0.000 -0.130  0.000 -0.130
  5 -0.000 -0.122  0.000 -0.122
  6 -0.000 -0.122  0.000 -0.122
tot -0.000 -0.787  0.000 -0.787
 
band  14 # energy   -9.17121653 # occ.  1.00000000
 
ion      s      p      d    tot
  1  0.000  0.126  0.000  0.126
  2  0.000  0.126  0.000  0.126
  3  0.000  0.137  0.000  0.137
  4  0.000  0.137  0.000  0.137
  5  0.000  0.131  0.000  0.131
  6  0.000  0.131  0.000  0.131
tot  0.000  0.787  0.000  0.787
  1  0.000  0.000  0.000  0.000
  2  0.000  0.000  0.000  0.000
  3 -0.000  0.000  0.000  0.000
  4 -0.000  0.000  0.000  0.000
  5 -0.000  0.000  0.000  0.000
  6 -0.000  0.000  0.000  0.000
tot -0.000  0.000  0.000  0.000
  1  0.000  0.000  0.000  0.000
  2  0.000  0.000  0.000  0.000
  3 -0.000  0.000  0.000  0.000
  4 -0.000  0.000  0.000  0.000
  5  0.000  0.000  0.000  0.000
  6 -0.000  0.000  0.000  0.000
tot  0.000  0.000  0.000  0.000
  1  0.000  0.126  0.000  0.126
  2  0.000  0.126  0.000  0.126
  3  0.000  0.137  0.000  0.137
  4  0.000  0.137  0.000  0.137
  5  0.000  0.131  0.000  0.131
  6  0.000  0.131  0.000  0.131
tot  0.000  0.787  0.000  0.787
 
band  15 # energy   -9.17072230 # occ.  1.00000000
 
ion      s      p      d    tot
  1  0.008  0.194  0.000  0.202
  2  0.008  0.194  0.000  0.202
  3  0.003  0.099  0.000  0.103
  4  0.003  0.099  0.000  0.103
  5  0.001  0.067  0.000  0.068
  6  0.001  0.067  0.000  0.068
tot  0.026  0.720  0.000  0.746
  1 -0.000 -0.000  0.000 -0.000
  2 -0.000 -0.000  0.000 -0.000
  3 -0.000 -0.000  0.000 -0.000
  4 -0.000 -0.000  0.000 -0.000
  5  0.000 -0.000  0.000 -0.000
  6  0.000  0.000  0.000  0.000
tot -0.000 -0.000  0.000 -0.000
  1 -0.000 -0.000  0.000 -0.000
  2 -0.000 -0.000  0.000 -0.000
  3 -0.000 -0.000  0.000 -0.000
  4 -0.000 -0.000  0.000 -0.000
  5 -0.000 -0.000  0.000 -0.000
  6 -0.000 -0.000  0.000 -0.000
tot -0.000 -0.000  0.000 -0.000
  1 -0.008 -0.194  0.000 -0.202
  2 -0.008 -0.194  0.000 -0.202
  3 -0.003 -0.099  0.000 -0.103
  4 -0.003 -0.099  0.000 -0.103
  5 -0.001 -0.067  0.000 -0.068
  6 -0.001 -0.067  0.000 -0.068
tot -0.026 -0.720  0.000 -0.746
 
band  16 # energy   -9.17043949 # occ.  1.00000000
 
ion      s      p      d    tot
  1  0.000  0.036  0.000  0.036
  2  0.000  0.036  0.000  0.036
  3  0.005  0.142  0.000  0.147
  4  0.005  0.142  0.000  0.147
  5  0.008  0.182  0.000  0.190
  6  0.008  0.182  0.000  0.190
tot  0.026  0.720  0.000  0.746
  1  0.000 -0.000  0.000 -0.000
  2  0.000 -0.000  0.000 -0.000
  3 -0.000 -0.000  0.000 -0.000
  4 -0.000 -0.000  0.000 -0.000
  5 -0.000 -0.000  0.000 -0.000
  6 -0.000 -0.000  0.000 -0.000
tot -0.000 -0.000  0.000 -0.000
  1  0.000 -0.000  0.000 -0.000
  2  0.000 -0.000  0.000 -0.000
  3 -0.000 -0.000  0.000 -0.000
  4 -0.000 -0.000  0.000 -0.000
  5 -0.000 -0.000  0.000 -0.000
  6 -0.000 -0.000  0.000 -0.000
tot -0.000 -0.000  0.000 -0.000
  1 -0.000 -0.036  0.000 -0.036
  2 -0.000 -0.036  0.000 -0.036
  3 -0.005 -0.142  0.000 -0.147
  4 -0.005 -0.142  0.000 -0.147
  5 -0.008 -0.182  0.000 -0.190
  6 -0.008 -0.182  0.000 -0.190
tot -0.026 -0.720  0.000 -0.746
 
band  17 # energy   -9.17027480 # occ.  1.00000000
 
ion      s      p      d    tot
  1  0.000  0.048  0.000  0.048
  2  0.000  0.048  0.000  0.048
  3  0.007  0.171  0.000  0.178
  4  0.007  0.171  0.000  0.178
  5  0.006  0.141  0.000  0.147
  6  0.006  0.141  0.000  0.147
tot  0.026  0.720  0.000  0.746
  1  0.000  0.000  0.000  0.000
  2  0.000  0.000  0.000  0.000
  3  0.000  0.000  0.000  0.000
  4  0.000  0.000  0.000  0.000
  5  0.000  0.000  0.000  0.000
  6  0.000  0.000  0.000  0.000
tot  0.000  0.000  0.000  0.000
  1 -0.000  0.000  0.000  0.000
  2  0.000  0.000  0.000  0.000
  3  0.000  0.000  0.000  0.000
  4  0.000  0.000  0.000  0.000
  5  0.000  0.000  0.000  0.000
  6  0.000  0.000  0.000  0.000
tot  0.000  0.000  0.000  0.000
  1  0.000  0.048  0.000  0.048
  2  0.000  0.048  0.000  0.048
  3  0.007  0.171  0.000  0.178
  4  0.007  0.171  0.000  0.178
  5  0.006  0.141  0.000  0.147
  6  0.006  0.141  0.000  0.147
tot  0.026  0.720  0.000  0.746
 
band  18 # energy   -9.17011669 # occ.  1.00000000
 
ion      s      p      d    tot
  1  0.009  0.198  0.000  0.206
  2  0.009  0.198  0.000  0.206
  3  0.001  0.063  0.000  0.064
  4  0.001  0.063  0.000  0.064
  5  0.003  0.100  0.000  0.103
  6  0.003  0.100  0.000  0.103
tot  0.026  0.720  0.000  0.746
  1  0.000  0.000  0.000  0.000
  2  0.000  0.000  0.000  0.000
  3  0.000  0.000  0.000  0.000
  4  0.000  0.000  0.000  0.000
  5  0.000  0.000  0.000  0.000
  6  0.000  0.000  0.000  0.000
tot  0.000  0.000  0.000  0.000
  1  0.000  0.000  0.000  0.000
  2  0.000  0.000  0.000  0.000
  3  0.000  0.000  0.000  0.000
  4  0.000  0.000  0.000  0.000
  5  0.000  0.000  0.000  0.000
  6  0.000  0.000  0.000  0.000
tot  0.000  0.000  0.000  0.000
  1  0.009  0.198  0.000  0.206
  2  0.009  0.198  0.000  0.206
  3  0.001  0.063  0.000  0.064
  4  0.001  0.063  0.000  0.064
  5  0.003  0.100  0.000  0.103
  6  0.003  0.100  0.000  0.103
tot  0.026  0.720  0.000  0.746
 
band  19 # energy   -8.08222830 # occ.  1.00000000
 
ion      s      p      d    tot
  1  0.000  0.147  0.000  0.147
  2  0.000  0.147  0.000  0.147
  3  0.000  0.057  0.000  0.057
  4  0.000  0.057  0.000  0.057
  5  0.000  0.021  0.000  0.021
  6  0.000  0.021  0.000  0.021
tot  0.000  0.451  0.000  0.451
  1 -0.000 -0.000  0.000 -0.000
  2 -0.000 -0.000  0.000 -0.000
  3 -0.000  0.000  0.000  0.000
  4 -0.000 -0.000  0.000 -0.000
  5 -0.000 -0.000  0.000 -0.000
  6 -0.000 -0.000  0.000 -0.000
tot -0.000 -0.000  0.000 -0.000
  1  0.000 -0.000  0.000 -0.000
  2  0.000 -0.000  0.000 -0.000
  3  0.000  0.000  0.000  0.000
  4  0.000  0.000  0.000  0.000
  5 -0.000 -0.000  0.000 -0.000
  6 -0.000 -0.000  0.000 -0.000
tot  0.000 -0.000  0.000 -0.000
  1  0.000 -0.147  0.000 -0.147
  2  0.000 -0.147  0.000 -0.147
  3  0.000 -0.057  0.000 -0.057
  4  0.000 -0.057  0.000 -0.057
  5  0.000 -0.021  0.000 -0.021
  6  0.000 -0.021  0.000 -0.021
tot  0.000 -0.451  0.000 -0.451
 
band  20 # energy   -8.08213016 # occ.  1.00000000
 
ion      s      p      d    tot
  1  0.000  0.003  0.000  0.003
  2  0.000  0.003  0.000  0.003
  3  0.000  0.093  0.000  0.093
  4  0.000  0.093  0.000  0.093
  5  0.000  0.130  0.000  0.130
  6  0.000  0.130  0.000  0.130
tot  0.000  0.451  0.000  0.451
  1  0.000 -0.000  0.000 -0.000
  2 -0.000 -0.000  0.000 -0.000
  3  0.000 -0.000  0.000 -0.000
  4  0.000 -0.000  0.000 -0.000
  5  0.000 -0.000  0.000 -0.000
  6  0.000 -0.000  0.000 -0.000
tot  0.000 -0.000  0.000 -0.000
  1 -0.000 -0.000  0.000 -0.000
  2 -0.000  0.000  0.000  0.000
  3 -0.000 -0.000  0.000 -0.000
  4  0.000 -0.000  0.000 -0.000
  5 -0.000 -0.000  0.000 -0.000
  6 -0.000 -0.000  0.000 -0.000
tot -0.000 -0.000  0.000 -0.000
  1  0.000 -0.003  0.000 -0.003
  2  0.000 -0.003  0.000 -0.003
  3  0.000 -0.093  0.000 -0.093
  4  0.000 -0.093  0.000 -0.093
  5  0.000 -0.130  0.000 -0.130
  6  0.000 -0.130  0.000 -0.130
tot  0.000 -0.451  0.000 -0.451
 
band  21 # energy   -8.07969744 # occ.  1.00000000
 
ion      s      p      d    tot
  1  0.000  0.143  0.000  0.143
  2  0.000  0.143  0.000  0.143
  3  0.000  0.070  0.000  0.070
  4  0.000  0.070  0.000  0.070
  5  0.000  0.013  0.000  0.013
  6  0.000  0.013  0.000  0.013
tot  0.000  0.451  0.000  0.451
  1 -0.000  0.000  0.000  0.000
  2 -0.000  0.000  0.000  0.000
  3 -0.000  0.000  0.000  0.000
  4  0.000  0.000  0.000  0.000
  5 -0.000  0.000  0.000  0.000
  6 -0.000  0.000  0.000  0.000
tot -0.000  0.000  0.000  0.000
  1 -0.000  0.000  0.000  0.000
  2  0.000 -0.000  0.000 -0.000
  3 -0.000 -0.000  0.000 -0.000
  4 -0.000  0.000  0.000  0.000
  5  0.000 -0.000  0.000 -0.000
  6 -0.000  0.000  0.000  0.000
tot -0.000  0.000  0.000  0.000
  1 -0.000  0.143  0.000  0.143
  2 -0.000  0.143  0.000  0.143
  3 -0.000  0.070  0.000  0.070
  4 -0.000  0.070  0.000  0.070
  5 -0.000  0.013  0.000  0.013
  6 -0.000  0.013  0.000  0.013
tot -0.000  0.451  0.000  0.451
 
band  22 # energy   -8.07961028 # occ.  1.00000000
 
ion      s      p      d    tot
  1  0.000  0.008  0.000  0.008
  2  0.000  0.008  0.000  0.008
  3  0.000  0.080  0.000  0.080
  4  0.000  0.080  0.000  0.080
  5  0.000  0.138  0.000  0.138
  6  0.000  0.138  0.000  0.138
tot  0.000  0.451  0.000  0.451
  1  0.000  0.000  0.000  0.000
  2 -0.000 -0.000  0.000 -0.000
  3  0.000  0.000  0.000  0.000
  4  0.000 -0.000  0.000 -0.000
  5  0.000  0.000  0.000  0.000
  6  0.000  0.000  0.000  0.000
tot  0.000  0.000  0.000  0.000
  1  0.000  0.000  0.000  0.000
  2  0.000  0.000  0.000  0.000
  3 -0.000  0.000  0.000  0.000
  4 -0.000  0.000  0.000  0.000
  5  0.000  0.000  0.000  0.000
  6 -0.000  0.000  0.000  0.000
tot -0.000  0.000  0.000  0.000
  1 -0.000  0.008  0.000  0.008
  2 -0.000  0.008  0.000  0.008
  3 -0.000  0.080  0.000  0.080
  4 -0.000  0.080  0.000  0.080
  5 -0.000  0.138  0.000  0.138
  6 -0.000  0.138  0.000  0.138
tot -0.000  0.451  0.000  0.451
 
band  23 # energy   -5.10342051 # occ.  1.00000000
 
ion      s      p      d    tot
  1  0.000  0.085  0.000  0.085
  2  0.000  0.085  0.000  0.085
  3  0.000  0.085  0.000  0.085
  4  0.000  0.085  0.000  0.085
  5  0.000  0.085  0.000  0.085
  6  0.000  0.085  0.000  0.085
tot  0.000  0.512  0.000  0.512
  1 -0.000  0.000  0.000  0.000
  2 -0.000  0.000  0.000  0.000
  3 -0.000 -0.000  0.000 -0.000
  4 -0.000 -0.000  0.000 -0.000
  5 -0.000 -0.000  0.000 -0.000
  6 -0.000 -0.000  0.000 -0.000
tot -0.000  0.000  0.000  0.000
  1  0.000  0.000  0.000  0.000
  2  0.000  0.000  0.000  0.000
  3  0.000 -0.000  0.000 -0.000
  4  0.000 -0.000  0.000 -0.000
  5  0.000 -0.000  0.000 -0.000
  6  0.000 -0.000  0.000 -0.000
tot  0.000  0.000  0.000  0.000
  1  0.000 -0.085  0.000 -0.085
  2  0.000 -0.085  0.000 -0.085
  3  0.000 -0.085  0.000 -0.085
  4  0.000 -0.085  0.000 -0.085
  5  0.000 -0.085  0.000 -0.085
  6  0.000 -0.085  0.000 -0.085
tot  0.000 -0.512  0.000 -0.512
 
band  24 # energy   -5.10063761 # occ.  1.00000000
 
ion      s      p      d    tot
  1  0.000  0.085  0.000  0.085
  2  0.000  0.085  0.000  0.085
  3  0.000  0.085  0.000  0.085
  4  0.000  0.085  0.000  0.085
  5  0.000  0.085  0.000  0.085
  6  0.000  0.085  0.000  0.085
tot  0.000  0.512  0.000  0.512
  1 -0.000 -0.000  0.000 -0.000
  2  0.000 -0.000  0.000 -0.000
  3 -0.000  0.000  0.000  0.000
  4 -0.000  0.000  0.000  0.000
  5 -0.000  0.000  0.000  0.000
  6 -0.000  0.000  0.000  0.000
tot -0.000  0.000  0.000  0.000
  1  0.000  0.000  0.000  0.000
  2  0.000  0.000  0.000  0.000
  3  0.000 -0.000  0.000 -0.000
  4  0.000 -0.000  0.000 -0.000
  5 -0.000  0.000  0.000  0.000
  6  0.000  0.000  0.000  0.000
tot  0.000 -0.000  0.000 -0.000
  1 -0.000  0.085  0.000  0.085
  2 -0.000  0.085  0.000  0.085
  3 -0.000  0.085  0.000  0.085
  4 -0.000  0.085  0.000  0.085
  5 -0.000  0.085  0.000  0.085
  6 -0.000  0.085  0.000  0.085
tot -0.000  0.512  0.000  0.512
 
band  25 # energy   -1.05551600 # occ.  0.00000000
 
ion      s      p      d    tot
  1  0.000  0.075  0.000  0.075
  2  0.000  0.075  0.000  0.075
  3  0.000  0.075  0.000  0.075
  4  0.000  0.075  0.000  0.075
  5  0.000  0.075  0.000  0.075
  6  0.000  0.075  0.000  0.075
tot  0.000  0.449  0.000  0.449
  1  0.000 -0.000  0.000 -0.000
  2  0.000 -0.000  0.000 -0.000
  3  0.000 -0.000  0.000 -0.000
  4 -0.000 -0.000  0.000 -0.000
  5 -0.000 -0.000  0.000 -0.000
  6 -0.000 -0.000  0.000 -0.000
tot  0.000 -0.000  0.000 -0.000
  1 -0.000 -0.000  0.000 -0.000
  2 -0.000 -0.000  0.000 -0.000
  3 -0.000 -0.000  0.000 -0.000
  4  0.000 -0.000  0.000 -0.000
  5  0.000 -0.000  0.000 -0.000
  6  0.000 -0.000  0.000 -0.000
tot -0.000 -0.000  0.000 -0.000
  1  0.000 -0.075  0.000 -0.075
  2  0.000 -0.075  0.000 -0.075
  3  0.000 -0.075  0.000 -0.075
  4  0.000 -0.075  0.000 -0.075
  5  0.000 -0.075  0.000 -0.075
  6  0.000 -0.075  0.000 -0.075
tot  0.000 -0.449  0.000 -0.449
 
band  26 # energy   -1.05290778 # occ.  0.00000000
 
ion      s      p      d    tot
  1  0.000  0.075  0.000  0.075
  2  0.000  0.075  0.000  0.075
  3  0.000  0.075  0.000  0.075
  4  0.000  0.075  0.000  0.075
  5  0.000  0.075  0.000  0.075
  6  0.000  0.075  0.000  0.075
tot  0.000  0.449  0.000  0.449
  1  0.000  0.000  0.000  0.000
  2  0.000  0.000  0.000  0.000
  3  0.000  0.000  0.000  0.000
  4 -0.000  0.000  0.000  0.000
  5 -0.000  0.000  0.000  0.000
  6  0.000  0.000  0.000  0.000
tot -0.000  0.000  0.000  0.000
  1 -0.000  0.000  0.000  0.000
  2 -0.000  0.000  0.000  0.000
  3 -0.000  0.000  0.000  0.000
  4  0.000  0.000  0.000  0.000
  5  0.000  0.000  0.000  0.000
  6 -0.000  0.000  0.000  0.000
tot  0.000  0.000  0.000  0.000
  1 -0.000  0.075  0.000  0.075
  2 -0.000  0.075  0.000  0.075
  3 -0.000  0.075  0.000  0.075
  4 -0.000  0.075  0.000  0.075
  5 -0.000  0.075  0.000  0.075
  6 -0.000  0.075  0.000  0.075
tot -0.000  0.449  0.000  0.449
 
band  27 # energy    3.19135640 # occ.  0.00000000
 
ion      s      p      d    tot
  1  0.003  0.001  0.000  0.004
  2  0.003  0.001  0.000  0.004
  3  0.004  0.001  0.000  0.005
  4  0.004  0.001  0.000  0.005
  5  0.000  0.003  0.000  0.003
  6  0.000  0.003  0.000  0.003
tot  0.014  0.009  0.000  0.023
  1  0.000  0.000  0.000  0.000
  2  0.000  0.000  0.000  0.000
  3 -0.000 -0.000  0.000 -0.000
  4  0.000  0.000  0.000  0.000
  5  0.000  0.000  0.000  0.000
  6  0.000  0.000  0.000  0.000
tot -0.000  0.000  0.000  0.000
  1 -0.000  0.000  0.000 -0.000
  2 -0.000  0.000  0.000 -0.000
  3  0.000 -0.000  0.000  0.000
  4  0.000 -0.000  0.000  0.000
  5 -0.000  0.000  0.000 -0.000
  6 -0.000  0.000  0.000  0.000
tot  0.000  0.000  0.000  0.000
  1  0.003  0.001  0.000  0.004
  2  0.003  0.001  0.000  0.004
  3  0.004  0.001  0.000  0.005
  4  0.004  0.001  0.000  0.005
  5  0.000  0.003  0.000  0.003
  6  0.000  0.003  0.000  0.003
tot  0.014  0.009  0.000  0.023
 
band  28 # energy    3.19138631 # occ.  0.00000000
 
ion      s      p      d    tot
  1  0.002  0.002  0.000  0.004
  2  0.002  0.002  0.000  0.003
  3  0.001  0.002  0.000  0.003
  4  0.001  0.002  0.000  0.003
  5  0.005  0.000  0.000  0.005
  6  0.005  0.000  0.000  0.005
tot  0.014  0.009  0.000  0.023
  1 -0.000  0.000  0.000 -0.000
  2  0.000  0.000  0.000  0.000
  3  0.000  0.000  0.000  0.000
  4  0.000 -0.000  0.000 -0.000
  5 -0.000 -0.000  0.000 -0.000
  6  0.000  0.000  0.000  0.000
tot -0.000 -0.000  0.000 -0.000
  1 -0.000 -0.000  0.000 -0.000
  2 -0.000 -0.000  0.000 -0.000
  3 -0.000  0.000  0.000 -0.000
  4 -0.000 -0.000  0.000 -0.000
  5  0.000 -0.000  0.000  0.000
  6  0.000 -0.000  0.000  0.000
tot -0.000 -0.000  0.000 -0.000
  1  0.002  0.002  0.000  0.004
  2  0.002  0.002  0.000  0.003
  3  0.001  0.002  0.000  0.003
  4  0.001  0.002  0.000  0.003
  5  0.005  0.000  0.000  0.005
  6  0.005  0.000  0.000  0.005
tot  0.014  0.009  0.000  0.023
 
band  29 # energy    3.20331719 # occ.  0.00000000
 
ion      s      p      d    tot
  1  0.001  0.002  0.000  0.003
  2  0.001  0.002  0.000  0.003
  3  0.001  0.002  0.000  0.003
  4  0.001  0.002  0.000  0.003
  5  0.005  0.000  0.000  0.005
  6  0.005  0.000  0.000  0.005
tot  0.014  0.009  0.000  0.023
  1  0.000  0.000  0.000  0.000
  2  0.000 -0.000  0.000  0.000
  3  0.000  0.000  0.000  0.000
  4  0.000  0.000  0.000  0.000
  5  0.000  0.000  0.000  0.000
  6 -0.000  0.000  0.000 -0.000
tot  0.000  0.000  0.000  0.000
  1 -0.000  0.000  0.000  0.000
  2  0.000 -0.000  0.000  0.000
  3 -0.000  0.000  0.000  0.000
  4  0.000 -0.000  0.000  0.000
  5  0.000  0.000  0.000  0.000
  6  0.000  0.000  0.000  0.000
tot  0.000  0.000  0.000  0.000
  1 -0.001 -0.002  0.000 -0.003
  2 -0.001 -0.002  0.000 -0.003
  3 -0.001 -0.002  0.000 -0.003
  4 -0.001 -0.002  0.000 -0.003
  5 -0.005 -0.000  0.000 -0.005
  6 -0.005 -0.000  0.000 -0.005
tot -0.014 -0.009  0.000 -0.023
 
band  30 # energy    3.20334435 # occ.  0.00000000
 
ion      s      p      d    tot
  1  0.004  0.001  0.000  0.004
  2  0.004  0.001  0.000  0.004
  3  0.003  0.001  0.000  0.004
  4  0.003  0.001  0.000  0.004
  5  0.000  0.003  0.000  0.003
  6  0.000  0.003  0.000  0.003
tot  0.014  0.009  0.000  0.023
  1  0.000 -0.000  0.000  0.000
  2  0.000  0.000  0.000  0.000
  3 -0.000  0.000  0.000 -0.000
  4 -0.000  0.000  0.000 -0.000
  5 -0.000 -0.000  0.000 -0.000
  6 -0.000  0.000  0.000  0.000
tot  0.000  0.000  0.000  0.000
  1 -0.000 -0.000  0.000 -0.000
  2 -0.000 -0.000  0.000 -0.000
  3  0.000  0.000  0.000  0.000
  4  0.000 -0.000  0.000 -0.000
  5  0.000 -0.000  0.000 -0.000
  6  0.000  0.000  0.000  0.000
tot  0.000 -0.000  0.000 -0.000
  1 -0.004 -0.001  0.000 -0.004
  2 -0.004 -0.001  0.000 -0.004
  3 -0.003 -0.001  0.000 -0.004
  4 -0.003 -0.001  0.000 -0.004
  5 -0.000 -0.003  0.000 -0.003
  6 -0.000 -0.003  0.000 -0.003
tot -0.014 -0.009  0.000 -0.023
 
band  31 # energy    3.66527218 # occ.  0.00000000
 
ion      s      p      d    tot
  1  0.000  0.069  0.000  0.069
  2  0.000  0.069  0.000  0.069
  3  0.000  0.058  0.000  0.058
  4  0.000  0.058  0.000  0.058
  5  0.000  0.179  0.000  0.179
  6  0.000  0.179  0.000  0.179
tot  0.000  0.611  0.000  0.611
  1  0.000 -0.003  0.000 -0.003