 vasp.5.4.1 05Feb16 (build Oct 05 2016 14:17:20) complex                        
  
 executed on        GRP7IFC17AVX1 date 2017.06.20  20:31:30
 running on   48 total cores
 distrk:  each k-point on   12 cores,    4 groups
 distr:  one band on NCORES_PER_BAND=  12 cores,    1 groups


--------------------------------------------------------------------------------------------------------


 INCAR:
 POTCAR:    PAW_PBE C 08Apr2002                   

 ----------------------------------------------------------------------------- 
|                                                                             |
|           W    W    AA    RRRRR   N    N  II  N    N   GGGG   !!!           |
|           W    W   A  A   R    R  NN   N  II  NN   N  G    G  !!!           |
|           W    W  A    A  R    R  N N  N  II  N N  N  G       !!!           |
|           W WW W  AAAAAA  RRRRR   N  N N  II  N  N N  G  GGG   !            |
|           WW  WW  A    A  R   R   N   NN  II  N   NN  G    G                |
|           W    W  A    A  R    R  N    N  II  N    N   GGGG   !!!           |
|                                                                             |
|      You have enabled k-point parallelism (KPAR>1).                         |
|      This developmental code was originally  written by Paul Kent at ORNL,  |
|      and carefully double checked in Vienna.                                |
|      GW as well as linear response parallelism added by Martijn Marsman     |
|      and Georg Kresse.                                                      |
|      Carefully verify results versus KPAR=1.                                |
|      Report problems to Paul Kent and Vienna.                               |
|                                                                             |
 ----------------------------------------------------------------------------- 

 POTCAR:    PAW_PBE C 08Apr2002                   
   VRHFIN =C: s2p2                                                              
   LEXCH  = PE                                                                  
   EATOM  =   147.1560 eV,   10.8157 Ry                                         
                                                                                
   TITEL  = PAW_PBE C 08Apr2002                                                 
   LULTRA =        F    use ultrasoft PP ?                                      
   IUNSCR =        1    unscreen: 0-lin 1-nonlin 2-no                           
   RPACOR =    1.200    partial core radius                                     
   POMASS =   12.011; ZVAL   =    4.000    mass and valenz                      
   RCORE  =    1.500    outmost cutoff radius                                   
   RWIGS  =    1.630; RWIGS  =    0.863    wigner-seitz radius (au A)           
   ENMAX  =  400.000; ENMIN  =  300.000 eV                                      
   ICORE  =        2    local potential                                         
   LCOR   =        T    correct aug charges                                     
   LPAW   =        T    paw PP                                                  
   EAUG   =  644.873                                                            
   DEXC   =    0.000                                                            
   RMAX   =    1.529    core radius for proj-oper                               
   RAUG   =    1.300    factor for augmentation sphere                          
   RDEP   =    1.501    radius for radial grids                                 
   RDEPT  =    1.300    core radius for aug-charge                              
                                                                                
   Atomic configuration                                                         
    4 entries                                                                   
     n  l   j            E        occ.                                          
     1  0  0.50      -273.3789   2.0000                                         
     2  0  0.50       -13.7508   2.0000                                         
     2  1  0.50        -5.2854   2.0000                                         
     3  2  1.50        -5.4423   0.0000                                         
   Description                                                                  
     l       E           TYP  RCUT    TYP  RCUT                                 
     0    -13.7508458     23  1.200                                             
     0     -8.2022199     23  1.200                                             
     1     -5.2854383     23  1.500                                             
     1     34.0145650     23  1.500                                             
     2     -5.4423304      7  1.500                                             
  local pseudopotential read in
  partial core-charges read in
  partial kinetic energy density read in
  atomic valenz-charges read in
  non local Contribution for L=           0  read in
    real space projection operators read in
  non local Contribution for L=           0  read in
    real space projection operators read in
  non local Contribution for L=           1  read in
    real space projection operators read in
  non local Contribution for L=           1  read in
    real space projection operators read in
    PAW grid and wavefunctions read in
 
   number of l-projection  operators is LMAX  =           4
   number of lm-projection operators is LMMAX =           8
 
  PAW_PBE C 08Apr2002                   :
 energy of atom  1       EATOM= -147.1560
 kinetic energy error for atom=    0.0288 (will be added to EATOM!!)
 
 
 POSCAR: Graphene_r3_r3                          
  positions in direct lattice
  No initial velocities read in
 exchange correlation table for  LEXCH =        8
   RHO(1)=    0.500       N(1)  =     2000
   RHO(2)=  100.500       N(2)  =     4000
 


--------------------------------------------------------------------------------------------------------


 ion  position               nearest neighbor table
   1  0.000  0.000  0.000-   3 1.42   2 1.42   6 1.42
   2  0.000  0.333  0.000-   5 1.42   4 1.42   1 1.42
   3  0.333  0.000  0.000-   1 1.42   5 1.42   4 1.42
   4  0.333  0.667  0.000-   6 1.42   2 1.42   3 1.42
   5  0.667  0.333  0.000-   2 1.42   6 1.42   3 1.42
   6  0.667  0.667  0.000-   4 1.42   5 1.42   1 1.42
 

IMPORTANT INFORMATION: All symmetrisations will be switched off!
NOSYMM: (Re-)initialisation of all symmetry stuff for point group C_1.

 
 
 KPOINTS: ST_SG                                   
  interpolating k-points between supplied coordinates
  k-points in reciprocal lattice
Space group operators:
 irot       det(A)        alpha          n_x          n_y          n_z        tau_x        tau_y        tau_z
    1     1.000000     0.000000     1.000000     0.000000     0.000000     0.000000     0.000000     0.000000


--------------------------------------------------------------------------------------------------------




 Dimension of arrays:
   k-points           NKPTS =    200   k-points in BZ     NKDIM =    200   number of bands    NBANDS=     38
   number of dos      NEDOS =    301   number of ions     NIONS =      6
   non local maximal  LDIM  =      4   non local SUM 2l+1 LMDIM =      8
   total plane-waves  NPLWV = 109760
   max r-space proj   IRMAX =      1   max aug-charges    IRDMAX=  33046
   dimension x,y,z NGX =    28 NGY =   28 NGZ =  140
   dimension x,y,z NGXF=    56 NGYF=   56 NGZF=  280
   support grid    NGXF=   112 NGYF=  112 NGZF=  560
   ions per type =               6
 NGX,Y,Z   is equivalent  to a cutoff of  10.91, 10.91, 11.64 a.u.
 NGXF,Y,Z  is equivalent  to a cutoff of  21.82, 21.82, 23.27 a.u.


 I would recommend the setting:
   dimension x,y,z NGX =    28 NGY =   28 NGZ =  130
 SYSTEM =  unknown system                          
 POSCAR =  Graphene_r3_r3                          

 Startparameter for this run:
   NWRITE =      2    write-flag & timer
   PREC   = accura    normal or accurate (medium, high low for compatibility)
   ISTART =      0    job   : 0-new  1-cont  2-samecut
   ICHARG =     11    charge: 1-file 2-atom 10-const
   ISPIN  =      1    spin polarized calculation?
   LNONCOLLINEAR =      T non collinear calculations
   LSORBIT =      T    spin-orbit coupling
   INIWAV =      1    electr: 0-lowe 1-rand  2-diag
   LASPH  =      T    aspherical Exc in radial PAW
   METAGGA=      F    non-selfconsistent MetaGGA calc.

 Electronic Relaxation 1
   ENCUT  =  400.0 eV  29.40 Ry    5.42 a.u.   6.96  6.96 32.61*2*pi/ulx,y,z
   ENINI  =  400.0     initial cutoff
   ENAUG  =  644.9 eV  augmentation charge cutoff
   NELM   =    200;   NELMIN= 15; NELMDL= -5     # of ELM steps 
   EDIFF  = 0.1E-07   stopping-criterion for ELM
   LREAL  =      F    real-space projection
   NLSPLINE    = F    spline interpolate recip. space projectors
   LCOMPAT=      F    compatible to vasp.4.4
   GGA_COMPAT  = F    GGA compatible to vasp.4.4-vasp.4.6
   LMAXPAW     = -100 max onsite density
   LMAXMIX     =    4 max onsite mixed and CHGCAR
   VOSKOWN=      0    Vosko Wilk Nusair interpolation
   ROPT   =    0.00000
 Ionic relaxation
   EDIFFG = 0.1E-06   stopping-criterion for IOM
   NSW    =      0    number of steps for IOM
   NBLOCK =      1;   KBLOCK =      1    inner block; outer block 
   IBRION =     -1    ionic relax: 0-MD 1-quasi-New 2-CG
   NFREE  =      0    steps in history (QN), initial steepest desc. (CG)
   ISIF   =      2    stress and relaxation
   IWAVPR =     10    prediction:  0-non 1-charg 2-wave 3-comb
   ISYM   =     -1    0-nonsym 1-usesym 2-fastsym
   LCORR  =      T    Harris-Foulkes like correction to forces

   POTIM  = 0.5000    time-step for ionic-motion
   TEIN   =    0.0    initial temperature
   TEBEG  =    0.0;   TEEND  =   0.0 temperature during run
   SMASS  =  -3.00    Nose mass-parameter (am)
   estimated Nose-frequenzy (Omega)   =  0.10E-29 period in steps =****** mass=  -0.416E-27a.u.
   SCALEE = 1.0000    scale energy and forces
   NPACO  =    256;   APACO  = 16.0  distance and # of slots for P.C.
   PSTRESS=    0.0 pullay stress

  Mass of Ions in am
   POMASS =  12.01
  Ionic Valenz
   ZVAL   =   4.00
  Atomic Wigner-Seitz radii
   RWIGS  =  -1.00
  virtual crystal weights 
   VCA    =   1.00
   NELECT =      24.0000    total number of electrons
   NUPDOWN=      -1.0000    fix difference up-down

 DOS related values:
   EMIN   =  10.00;   EMAX   =-10.00  energy-range for DOS
   EFERMI =   0.00
   ISMEAR =     0;   SIGMA  =   0.01  broadening in eV -4-tet -1-fermi 0-gaus

 Electronic relaxation 2 (details)
   IALGO  =     38    algorithm
   LDIAG  =      T    sub-space diagonalisation (order eigenvalues)
   LSUBROT=      F    optimize rotation matrix (better conditioning)
   TURBO    =      0    0=normal 1=particle mesh
   IRESTART =      0    0=no restart 2=restart with 2 vectors
   NREBOOT  =      0    no. of reboots
   NMIN     =      0    reboot dimension
   EREF     =   0.00    reference energy to select bands
   IMIX   =      4    mixing-type and parameters
     AMIX     =   0.40;   BMIX     =  1.00
     AMIX_MAG =   1.60;   BMIX_MAG =  1.00
     AMIN     =   0.01
     WC   =   100.;   INIMIX=   1;  MIXPRE=   1;  MAXMIX= -45

 Intra band minimization:
   WEIMIN = 0.0000     energy-eigenvalue tresh-hold
   EBREAK =  0.66E-10  absolut break condition
   DEPER  =   0.30     relativ break condition  

   TIME   =   0.40     timestep for ELM

  volume/ion in A,a.u.               =      52.57       354.78
  Fermi-wavevector in a.u.,A,eV,Ry     =   0.693705  1.310912  6.547480  0.481226
  Thomas-Fermi vector in A             =   1.775993
 
 Write flags
   LWAVE  =      F    write WAVECAR
   LCHARG =      F    write CHGCAR
   LVTOT  =      F    write LOCPOT, total local potential
   LVHAR  =      F    write LOCPOT, Hartree potential only
   LELF   =      F    write electronic localiz. function (ELF)
   LORBIT =     10    0 simple, 1 ext, 2 COOP (PROOUT)


 Dipole corrections
   LMONO  =      F    monopole corrections only (constant potential shift)
   LDIPOL =      F    correct potential (dipole corrections)
   IDIPOL =      0    1-x, 2-y, 3-z, 4-all directions 
   EPSILON=  1.0000000 bulk dielectric constant

 Exchange correlation treatment:
   GGA     =    --    GGA type
   LEXCH   =     8    internal setting for exchange type
   VOSKOWN=      0    Vosko Wilk Nusair interpolation
   LHFCALC =     F    Hartree Fock is set to
   LHFONE  =     F    Hartree Fock one center treatment
   AEXX    =    0.0000 exact exchange contribution

 Linear response parameters
   LEPSILON=     F    determine dielectric tensor
   LRPA    =     F    only Hartree local field effects (RPA)
   LNABLA  =     F    use nabla operator in PAW spheres
   LVEL    =     F    velocity operator in full k-point grid
   LINTERFAST=   F  fast interpolation
   KINTER  =     0    interpolate to denser k-point grid
   CSHIFT  =0.1000    complex shift for real part using Kramers Kronig
   OMEGAMAX=  -1.0    maximum frequency
   DEG_THRESHOLD= 0.2000000E-02 threshold for treating states as degnerate
   RTIME   =    0.100 relaxation time in fs

 Orbital magnetization related:
   ORBITALMAG=     F  switch on orbital magnetization
   LCHIMAG   =     F  perturbation theory with respect to B field
   DQ        =  0.001000  dq finite difference perturbation B field



--------------------------------------------------------------------------------------------------------


 Static calculation
 charge density and potential remain constant during run
 non collinear spin polarized calculation
 Variant of blocked Davidson
 Davidson routine will perform the subspace rotation
 perform sub-space diagonalisation
    after iterative eigenvector-optimisation
 no mixing
 using additional bands           26
 reciprocal scheme for non local part
 use partial core corrections
 calculate Harris-corrections to forces 
   (improved forces if not selfconsistent)
 use gradient corrections 
 WARNING: stress and forces are not correct
  (second derivative of E(xc) not defined)
 use of overlap-Matrix (Vanderbilt PP)
 Gauss-broadening in eV      SIGMA  =   0.01


--------------------------------------------------------------------------------------------------------


  energy-cutoff  :      400.00
  volume of cell :      315.44
      direct lattice vectors                 reciprocal lattice vectors
     4.267520463  0.000000000  0.000000000     0.234328109  0.135289397  0.000000000
    -2.133760231  3.695781132  0.000000000     0.000000000  0.270578794  0.000000000
     0.000000000  0.000000000 20.000000000     0.000000000  0.000000000  0.050000000

  length of vectors
     4.267520463  4.267520463 20.000000000     0.270578794  0.270578794  0.050000000


 
 k-points in units of 2pi/SCALE and weight: ST_SG                                   
   0.01952726  0.03382221  0.00000000       0.005
   0.01933002  0.03348058  0.00000000       0.005
   0.01913277  0.03313894  0.00000000       0.005
   0.01893553  0.03279730  0.00000000       0.005
   0.01873828  0.03245566  0.00000000       0.005
   0.01854104  0.03211402  0.00000000       0.005
   0.01834379  0.03177238  0.00000000       0.005
   0.01814655  0.03143074  0.00000000       0.005
   0.01794930  0.03108911  0.00000000       0.005
   0.01775206  0.03074747  0.00000000       0.005
   0.01755481  0.03040583  0.00000000       0.005
   0.01735757  0.03006419  0.00000000       0.005
   0.01716032  0.02972255  0.00000000       0.005
   0.01696308  0.02938091  0.00000000       0.005
   0.01676583  0.02903927  0.00000000       0.005
   0.01656859  0.02869764  0.00000000       0.005
   0.01637134  0.02835600  0.00000000       0.005
   0.01617410  0.02801436  0.00000000       0.005
   0.01597685  0.02767272  0.00000000       0.005
   0.01577961  0.02733108  0.00000000       0.005
   0.01558236  0.02698944  0.00000000       0.005
   0.01538512  0.02664780  0.00000000       0.005
   0.01518787  0.02630617  0.00000000       0.005
   0.01499063  0.02596453  0.00000000       0.005
   0.01479338  0.02562289  0.00000000       0.005
   0.01459614  0.02528125  0.00000000       0.005
   0.01439889  0.02493961  0.00000000       0.005
   0.01420165  0.02459797  0.00000000       0.005
   0.01400440  0.02425634  0.00000000       0.005
   0.01380716  0.02391470  0.00000000       0.005
   0.01360991  0.02357306  0.00000000       0.005
   0.01341267  0.02323142  0.00000000       0.005
   0.01321542  0.02288978  0.00000000       0.005
   0.01301818  0.02254814  0.00000000       0.005
   0.01282093  0.02220650  0.00000000       0.005
   0.01262369  0.02186487  0.00000000       0.005
   0.01242644  0.02152323  0.00000000       0.005
   0.01222920  0.02118159  0.00000000       0.005
   0.01203195  0.02083995  0.00000000       0.005
   0.01183471  0.02049831  0.00000000       0.005
   0.01163746  0.02015667  0.00000000       0.005
   0.01144022  0.01981503  0.00000000       0.005
   0.01124297  0.01947340  0.00000000       0.005
   0.01104573  0.01913176  0.00000000       0.005
   0.01084848  0.01879012  0.00000000       0.005
   0.01065124  0.01844848  0.00000000       0.005
   0.01045399  0.01810684  0.00000000       0.005
   0.01025674  0.01776520  0.00000000       0.005
   0.01005950  0.01742356  0.00000000       0.005
   0.00986225  0.01708193  0.00000000       0.005
   0.00966501  0.01674029  0.00000000       0.005
   0.00946776  0.01639865  0.00000000       0.005
   0.00927052  0.01605701  0.00000000       0.005
   0.00907327  0.01571537  0.00000000       0.005
   0.00887603  0.01537373  0.00000000       0.005
   0.00867878  0.01503210  0.00000000       0.005
   0.00848154  0.01469046  0.00000000       0.005
   0.00828429  0.01434882  0.00000000       0.005
   0.00808705  0.01400718  0.00000000       0.005
   0.00788980  0.01366554  0.00000000       0.005
   0.00769256  0.01332390  0.00000000       0.005
   0.00749531  0.01298226  0.00000000       0.005
   0.00729807  0.01264063  0.00000000       0.005
   0.00710082  0.01229899  0.00000000       0.005
   0.00690358  0.01195735  0.00000000       0.005
   0.00670633  0.01161571  0.00000000       0.005
   0.00650909  0.01127407  0.00000000       0.005
   0.00631184  0.01093243  0.00000000       0.005
   0.00611460  0.01059079  0.00000000       0.005
   0.00591735  0.01024916  0.00000000       0.005
   0.00572011  0.00990752  0.00000000       0.005
   0.00552286  0.00956588  0.00000000       0.005
   0.00532562  0.00922424  0.00000000       0.005
   0.00512837  0.00888260  0.00000000       0.005
   0.00493113  0.00854096  0.00000000       0.005
   0.00473388  0.00819932  0.00000000       0.005
   0.00453664  0.00785769  0.00000000       0.005
   0.00433939  0.00751605  0.00000000       0.005
   0.00414215  0.00717441  0.00000000       0.005
   0.00394490  0.00683277  0.00000000       0.005
   0.00374766  0.00649113  0.00000000       0.005
   0.00355041  0.00614949  0.00000000       0.005
   0.00335317  0.00580785  0.00000000       0.005
   0.00315592  0.00546622  0.00000000       0.005
   0.00295868  0.00512458  0.00000000       0.005
   0.00276143  0.00478294  0.00000000       0.005
   0.00256419  0.00444130  0.00000000       0.005
   0.00236694  0.00409966  0.00000000       0.005
   0.00216970  0.00375802  0.00000000       0.005
   0.00197245  0.00341639  0.00000000       0.005
   0.00177521  0.00307475  0.00000000       0.005
   0.00157796  0.00273311  0.00000000       0.005
   0.00138072  0.00239147  0.00000000       0.005
   0.00118347  0.00204983  0.00000000       0.005
   0.00098623  0.00170819  0.00000000       0.005
   0.00078898  0.00136655  0.00000000       0.005
   0.00059174  0.00102492  0.00000000       0.005
   0.00039449  0.00068328  0.00000000       0.005
   0.00019725  0.00034164  0.00000000       0.005
   0.00000000  0.00000000  0.00000000       0.005
   0.00000000  0.00000000  0.00000000       0.005
   0.00029587  0.00017082  0.00000000       0.005
   0.00059174  0.00034164  0.00000000       0.005
   0.00088761  0.00051246  0.00000000       0.005
   0.00118348  0.00068328  0.00000000       0.005
   0.00147934  0.00085410  0.00000000       0.005
   0.00177521  0.00102492  0.00000000       0.005
   0.00207108  0.00119574  0.00000000       0.005
   0.00236695  0.00136656  0.00000000       0.005
   0.00266282  0.00153738  0.00000000       0.005
   0.00295869  0.00170820  0.00000000       0.005
   0.00325456  0.00187902  0.00000000       0.005
   0.00355043  0.00204984  0.00000000       0.005
   0.00384629  0.00222066  0.00000000       0.005
   0.00414216  0.00239148  0.00000000       0.005
   0.00443803  0.00256230  0.00000000       0.005
   0.00473390  0.00273312  0.00000000       0.005
   0.00502977  0.00290394  0.00000000       0.005
   0.00532564  0.00307476  0.00000000       0.005
   0.00562151  0.00324558  0.00000000       0.005
   0.00591738  0.00341640  0.00000000       0.005
   0.00621325  0.00358722  0.00000000       0.005
   0.00650911  0.00375804  0.00000000       0.005
   0.00680498  0.00392886  0.00000000       0.005
   0.00710085  0.00409968  0.00000000       0.005
   0.00739672  0.00427050  0.00000000       0.005
   0.00769259  0.00444132  0.00000000       0.005
   0.00798846  0.00461214  0.00000000       0.005
   0.00828433  0.00478296  0.00000000       0.005
   0.00858020  0.00495378  0.00000000       0.005
   0.00887606  0.00512460  0.00000000       0.005
   0.00917193  0.00529542  0.00000000       0.005
   0.00946780  0.00546624  0.00000000       0.005
   0.00976367  0.00563706  0.00000000       0.005
   0.01005954  0.00580788  0.00000000       0.005
   0.01035541  0.00597870  0.00000000       0.005
   0.01065128  0.00614952  0.00000000       0.005
   0.01094715  0.00632034  0.00000000       0.005
   0.01124302  0.00649116  0.00000000       0.005
   0.01153888  0.00666198  0.00000000       0.005
   0.01183475  0.00683280  0.00000000       0.005
   0.01213062  0.00700362  0.00000000       0.005
   0.01242649  0.00717444  0.00000000       0.005
   0.01272236  0.00734526  0.00000000       0.005
   0.01301823  0.00751608  0.00000000       0.005
   0.01331410  0.00768690  0.00000000       0.005
   0.01360997  0.00785772  0.00000000       0.005
   0.01390583  0.00802854  0.00000000       0.005
   0.01420170  0.00819936  0.00000000       0.005
   0.01449757  0.00837018  0.00000000       0.005
   0.01479344  0.00854100  0.00000000       0.005
   0.01508931  0.00871182  0.00000000       0.005
   0.01538518  0.00888264  0.00000000       0.005
   0.01568105  0.00905346  0.00000000       0.005
   0.01597692  0.00922428  0.00000000       0.005
   0.01627279  0.00939510  0.00000000       0.005
   0.01656865  0.00956592  0.00000000       0.005
   0.01686452  0.00973674  0.00000000       0.005
   0.01716039  0.00990756  0.00000000       0.005
   0.01745626  0.01007838  0.00000000       0.005
   0.01775213  0.01024920  0.00000000       0.005
   0.01804800  0.01042002  0.00000000       0.005
   0.01834387  0.01059084  0.00000000       0.005
   0.01863974  0.01076166  0.00000000       0.005
   0.01893560  0.01093248  0.00000000       0.005
   0.01923147  0.01110330  0.00000000       0.005
   0.01952734  0.01127412  0.00000000       0.005
   0.01982321  0.01144494  0.00000000       0.005
   0.02011908  0.01161576  0.00000000       0.005
   0.02041495  0.01178658  0.00000000       0.005
   0.02071082  0.01195740  0.00000000       0.005
   0.02100669  0.01212822  0.00000000       0.005
   0.02130256  0.01229904  0.00000000       0.005
   0.02159842  0.01246986  0.00000000       0.005
   0.02189429  0.01264068  0.00000000       0.005
   0.02219016  0.01281150  0.00000000       0.005
   0.02248603  0.01298232  0.00000000       0.005
   0.02278190  0.01315314  0.00000000       0.005
   0.02307777  0.01332396  0.00000000       0.005
   0.02337364  0.01349478  0.00000000       0.005
   0.02366951  0.01366560  0.00000000       0.005
   0.02396537  0.01383642  0.00000000       0.005
   0.02426124  0.01400724  0.00000000       0.005
   0.02455711  0.01417806  0.00000000       0.005
   0.02485298  0.01434888  0.00000000       0.005
   0.02514885  0.01451970  0.00000000       0.005
   0.02544472  0.01469052  0.00000000       0.005
   0.02574059  0.01486134  0.00000000       0.005
   0.02603646  0.01503216  0.00000000       0.005
   0.02633233  0.01520298  0.00000000       0.005
   0.02662819  0.01537380  0.00000000       0.005
   0.02692406  0.01554462  0.00000000       0.005
   0.02721993  0.01571543  0.00000000       0.005
   0.02751580  0.01588625  0.00000000       0.005
   0.02781167  0.01605707  0.00000000       0.005
   0.02810754  0.01622789  0.00000000       0.005
   0.02840341  0.01639871  0.00000000       0.005
   0.02869928  0.01656953  0.00000000       0.005
   0.02899514  0.01674035  0.00000000       0.005
   0.02929101  0.01691117  0.00000000       0.005
 
 k-points in reciprocal lattice and weights: ST_SG                                   
   0.08333300  0.08333300  0.00000000       0.005
   0.08249125  0.08249125  0.00000000       0.005
   0.08164951  0.08164951  0.00000000       0.005
   0.08080776  0.08080776  0.00000000       0.005
   0.07996601  0.07996601  0.00000000       0.005
   0.07912426  0.07912426  0.00000000       0.005
   0.07828252  0.07828252  0.00000000       0.005
   0.07744077  0.07744077  0.00000000       0.005
   0.07659902  0.07659902  0.00000000       0.005
   0.07575727  0.07575727  0.00000000       0.005
   0.07491553  0.07491553  0.00000000       0.005
   0.07407378  0.07407378  0.00000000       0.005
   0.07323203  0.07323203  0.00000000       0.005
   0.07239028  0.07239028  0.00000000       0.005
   0.07154854  0.07154854  0.00000000       0.005
   0.07070679  0.07070679  0.00000000       0.005
   0.06986504  0.06986504  0.00000000       0.005
   0.06902329  0.06902329  0.00000000       0.005
   0.06818155  0.06818155  0.00000000       0.005
   0.06733980  0.06733980  0.00000000       0.005
   0.06649805  0.06649805  0.00000000       0.005
   0.06565630  0.06565630  0.00000000       0.005
   0.06481456  0.06481456  0.00000000       0.005
   0.06397281  0.06397281  0.00000000       0.005
   0.06313106  0.06313106  0.00000000       0.005
   0.06228931  0.06228931  0.00000000       0.005
   0.06144757  0.06144757  0.00000000       0.005
   0.06060582  0.06060582  0.00000000       0.005
   0.05976407  0.05976407  0.00000000       0.005
   0.05892232  0.05892232  0.00000000       0.005
   0.05808058  0.05808058  0.00000000       0.005
   0.05723883  0.05723883  0.00000000       0.005
   0.05639708  0.05639708  0.00000000       0.005
   0.05555533  0.05555533  0.00000000       0.005
   0.05471359  0.05471359  0.00000000       0.005
   0.05387184  0.05387184  0.00000000       0.005
   0.05303009  0.05303009  0.00000000       0.005
   0.05218834  0.05218834  0.00000000       0.005
   0.05134660  0.05134660  0.00000000       0.005
   0.05050485  0.05050485  0.00000000       0.005
   0.04966310  0.04966310  0.00000000       0.005
   0.04882135  0.04882135  0.00000000       0.005
   0.04797961  0.04797961  0.00000000       0.005
   0.04713786  0.04713786  0.00000000       0.005
   0.04629611  0.04629611  0.00000000       0.005
   0.04545436  0.04545436  0.00000000       0.005
   0.04461262  0.04461262  0.00000000       0.005
   0.04377087  0.04377087  0.00000000       0.005
   0.04292912  0.04292912  0.00000000       0.005
   0.04208737  0.04208737  0.00000000       0.005
   0.04124563  0.04124563  0.00000000       0.005
   0.04040388  0.04040388  0.00000000       0.005
   0.03956213  0.03956213  0.00000000       0.005
   0.03872038  0.03872038  0.00000000       0.005
   0.03787864  0.03787864  0.00000000       0.005
   0.03703689  0.03703689  0.00000000       0.005
   0.03619514  0.03619514  0.00000000       0.005
   0.03535339  0.03535339  0.00000000       0.005
   0.03451165  0.03451165  0.00000000       0.005
   0.03366990  0.03366990  0.00000000       0.005
   0.03282815  0.03282815  0.00000000       0.005
   0.03198640  0.03198640  0.00000000       0.005
   0.03114466  0.03114466  0.00000000       0.005
   0.03030291  0.03030291  0.00000000       0.005
   0.02946116  0.02946116  0.00000000       0.005
   0.02861941  0.02861941  0.00000000       0.005
   0.02777767  0.02777767  0.00000000       0.005
   0.02693592  0.02693592  0.00000000       0.005
   0.02609417  0.02609417  0.00000000       0.005
   0.02525242  0.02525242  0.00000000       0.005
   0.02441068  0.02441068  0.00000000       0.005
   0.02356893  0.02356893  0.00000000       0.005
   0.02272718  0.02272718  0.00000000       0.005
   0.02188543  0.02188543  0.00000000       0.005
   0.02104369  0.02104369  0.00000000       0.005
   0.02020194  0.02020194  0.00000000       0.005
   0.01936019  0.01936019  0.00000000       0.005
   0.01851844  0.01851844  0.00000000       0.005
   0.01767670  0.01767670  0.00000000       0.005
   0.01683495  0.01683495  0.00000000       0.005
   0.01599320  0.01599320  0.00000000       0.005
   0.01515145  0.01515145  0.00000000       0.005
   0.01430971  0.01430971  0.00000000       0.005
   0.01346796  0.01346796  0.00000000       0.005
   0.01262621  0.01262621  0.00000000       0.005
   0.01178446  0.01178446  0.00000000       0.005
   0.01094272  0.01094272  0.00000000       0.005
   0.01010097  0.01010097  0.00000000       0.005
   0.00925922  0.00925922  0.00000000       0.005
   0.00841747  0.00841747  0.00000000       0.005
   0.00757573  0.00757573  0.00000000       0.005
   0.00673398  0.00673398  0.00000000       0.005
   0.00589223  0.00589223  0.00000000       0.005
   0.00505048  0.00505048  0.00000000       0.005
   0.00420874  0.00420874  0.00000000       0.005
   0.00336699  0.00336699  0.00000000       0.005
   0.00252524  0.00252524  0.00000000       0.005
   0.00168349  0.00168349  0.00000000       0.005
   0.00084175  0.00084175  0.00000000       0.005
   0.00000000  0.00000000  0.00000000       0.005
   0.00000000  0.00000000  0.00000000       0.005
   0.00126263  0.00000000  0.00000000       0.005
   0.00252525  0.00000000  0.00000000       0.005
   0.00378788  0.00000000  0.00000000       0.005
   0.00505051  0.00000000  0.00000000       0.005
   0.00631313  0.00000000  0.00000000       0.005
   0.00757576  0.00000000  0.00000000       0.005
   0.00883838  0.00000000  0.00000000       0.005
   0.01010101  0.00000000  0.00000000       0.005
   0.01136364  0.00000000  0.00000000       0.005
   0.01262626  0.00000000  0.00000000       0.005
   0.01388889  0.00000000  0.00000000       0.005
   0.01515152  0.00000000  0.00000000       0.005
   0.01641414  0.00000000  0.00000000       0.005
   0.01767677  0.00000000  0.00000000       0.005
   0.01893939  0.00000000  0.00000000       0.005
   0.02020202  0.00000000  0.00000000       0.005
   0.02146465  0.00000000  0.00000000       0.005
   0.02272727  0.00000000  0.00000000       0.005
   0.02398990  0.00000000  0.00000000       0.005
   0.02525253  0.00000000  0.00000000       0.005
   0.02651515  0.00000000  0.00000000       0.005
   0.02777778  0.00000000  0.00000000       0.005
   0.02904040  0.00000000  0.00000000       0.005
   0.03030303  0.00000000  0.00000000       0.005
   0.03156566  0.00000000  0.00000000       0.005
   0.03282828  0.00000000  0.00000000       0.005
   0.03409091  0.00000000  0.00000000       0.005
   0.03535354  0.00000000  0.00000000       0.005
   0.03661616  0.00000000  0.00000000       0.005
   0.03787879  0.00000000  0.00000000       0.005
   0.03914141  0.00000000  0.00000000       0.005
   0.04040404  0.00000000  0.00000000       0.005
   0.04166667  0.00000000  0.00000000       0.005
   0.04292929  0.00000000  0.00000000       0.005
   0.04419192  0.00000000  0.00000000       0.005
   0.04545455  0.00000000  0.00000000       0.005
   0.04671717  0.00000000  0.00000000       0.005
   0.04797980  0.00000000  0.00000000       0.005
   0.04924242  0.00000000  0.00000000       0.005
   0.05050505  0.00000000  0.00000000       0.005
   0.05176768  0.00000000  0.00000000       0.005
   0.05303030  0.00000000  0.00000000       0.005
   0.05429293  0.00000000  0.00000000       0.005
   0.05555556  0.00000000  0.00000000       0.005
   0.05681818  0.00000000  0.00000000       0.005
   0.05808081  0.00000000  0.00000000       0.005
   0.05934343  0.00000000  0.00000000       0.005
   0.06060606  0.00000000  0.00000000       0.005
   0.06186869  0.00000000  0.00000000       0.005
   0.06313131  0.00000000  0.00000000       0.005
   0.06439394  0.00000000  0.00000000       0.005
   0.06565657  0.00000000  0.00000000       0.005
   0.06691919  0.00000000  0.00000000       0.005
   0.06818182  0.00000000  0.00000000       0.005
   0.06944444  0.00000000  0.00000000       0.005
   0.07070707  0.00000000  0.00000000       0.005
   0.07196970  0.00000000  0.00000000       0.005
   0.07323232  0.00000000  0.00000000       0.005
   0.07449495  0.00000000  0.00000000       0.005
   0.07575758  0.00000000  0.00000000       0.005
   0.07702020  0.00000000  0.00000000       0.005
   0.07828283  0.00000000  0.00000000       0.005
   0.07954545  0.00000000  0.00000000       0.005
   0.08080808  0.00000000  0.00000000       0.005
   0.08207071  0.00000000  0.00000000       0.005
   0.08333333  0.00000000  0.00000000       0.005
   0.08459596  0.00000000  0.00000000       0.005
   0.08585859  0.00000000  0.00000000       0.005
   0.08712121  0.00000000  0.00000000       0.005
   0.08838384  0.00000000  0.00000000       0.005
   0.08964646  0.00000000  0.00000000       0.005
   0.09090909  0.00000000  0.00000000       0.005
   0.09217172  0.00000000  0.00000000       0.005
   0.09343434  0.00000000  0.00000000       0.005
   0.09469697  0.00000000  0.00000000       0.005
   0.09595960  0.00000000  0.00000000       0.005
   0.09722222  0.00000000  0.00000000       0.005
   0.09848485  0.00000000  0.00000000       0.005
   0.09974747  0.00000000  0.00000000       0.005
   0.10101010  0.00000000  0.00000000       0.005
   0.10227273  0.00000000  0.00000000       0.005
   0.10353535  0.00000000  0.00000000       0.005
   0.10479798  0.00000000  0.00000000       0.005
   0.10606061  0.00000000  0.00000000       0.005
   0.10732323  0.00000000  0.00000000       0.005
   0.10858586  0.00000000  0.00000000       0.005
   0.10984848  0.00000000  0.00000000       0.005
   0.11111111  0.00000000  0.00000000       0.005
   0.11237374  0.00000000  0.00000000       0.005
   0.11363636  0.00000000  0.00000000       0.005
   0.11489899  0.00000000  0.00000000       0.005
   0.11616162  0.00000000  0.00000000       0.005
   0.11742424  0.00000000  0.00000000       0.005
   0.11868687  0.00000000  0.00000000       0.005
   0.11994949  0.00000000  0.00000000       0.005
   0.12121212  0.00000000  0.00000000       0.005
   0.12247475  0.00000000  0.00000000       0.005
   0.12373737  0.00000000  0.00000000       0.005
   0.12500000  0.00000000  0.00000000       0.005
 
 position of ions in fractional coordinates (direct lattice) 
   0.00000000  0.00000000  0.00000000
   0.00000000  0.33333333  0.00000000
   0.33333333  0.00000000  0.00000000
   0.33333333  0.66666667  0.00000000
   0.66666667  0.33333333  0.00000000
   0.66666667  0.66666667  0.00000000
 
 position of ions in cartesian coordinates  (Angst):
   0.00000000  0.00000000  0.00000000
  -0.71125341  1.23192704  0.00000000
   1.42250682  0.00000000  0.00000000
   0.00000000  2.46385409  0.00000000
   2.13376023  1.23192704  0.00000000
   1.42250682  2.46385409  0.00000000
 
 Euler angles ALPHA=     0.0000000  BETA=     0.0000000

 transformation matrix from SAXIS to cartesian coordinates
 ---------------------------------------------------------
     1.0000000 m_x     0.0000000 m_y     0.0000000 m_z
     0.0000000 m_x     1.0000000 m_y     0.0000000 m_z
     0.0000000 m_x     0.0000000 m_y     1.0000000 m_z

 transformation matrix from cartesian coordinates to SAXIS
 ---------------------------------------------------------
     1.0000000 m_x     0.0000000 m_y     0.0000000 m_z
     0.0000000 m_x     1.0000000 m_y     0.0000000 m_z
     0.0000000 m_x     0.0000000 m_y     1.0000000 m_z




--------------------------------------------------------------------------------------------------------


 k-point  1 :   0.0833 0.0833 0.0000  plane waves:   11382
 k-point  2 :   0.0825 0.0825 0.0000  plane waves:   11382
 k-point  3 :   0.0816 0.0816 0.0000  plane waves:   11382
 k-point  4 :   0.0808 0.0808 0.0000  plane waves:   11378
 k-point  5 :   0.0800 0.0800 0.0000  plane waves:   11378
 k-point  6 :   0.0791 0.0791 0.0000  plane waves:   11378
 k-point  7 :   0.0783 0.0783 0.0000  plane waves:   11378
 k-point  8 :   0.0774 0.0774 0.0000  plane waves:   11386
 k-point  9 :   0.0766 0.0766 0.0000  plane waves:   11374
 k-point 10 :   0.0758 0.0758 0.0000  plane waves:   11366
 k-point 11 :   0.0749 0.0749 0.0000  plane waves:   11366
 k-point 12 :   0.0741 0.0741 0.0000  plane waves:   11374
 k-point 13 :   0.0732 0.0732 0.0000  plane waves:   11366
 k-point 14 :   0.0724 0.0724 0.0000  plane waves:   11374
 k-point 15 :   0.0715 0.0715 0.0000  plane waves:   11366
 k-point 16 :   0.0707 0.0707 0.0000  plane waves:   11366
 k-point 17 :   0.0699 0.0699 0.0000  plane waves:   11366
 k-point 18 :   0.0690 0.0690 0.0000  plane waves:   11366
 k-point 19 :   0.0682 0.0682 0.0000  plane waves:   11358
 k-point 20 :   0.0673 0.0673 0.0000  plane waves:   11350
 k-point 21 :   0.0665 0.0665 0.0000  plane waves:   11350
 k-point 22 :   0.0657 0.0657 0.0000  plane waves:   11358
 k-point 23 :   0.0648 0.0648 0.0000  plane waves:   11366
 k-point 24 :   0.0640 0.0640 0.0000  plane waves:   11366
 k-point 25 :   0.0631 0.0631 0.0000  plane waves:   11374
 k-point 26 :   0.0623 0.0623 0.0000  plane waves:   11374
 k-point 27 :   0.0614 0.0614 0.0000  plane waves:   11366
 k-point 28 :   0.0606 0.0606 0.0000  plane waves:   11366
 k-point 29 :   0.0598 0.0598 0.0000  plane waves:   11366
 k-point 30 :   0.0589 0.0589 0.0000  plane waves:   11366
 k-point 31 :   0.0581 0.0581 0.0000  plane waves:   11358
 k-point 32 :   0.0572 0.0572 0.0000  plane waves:   11358
 k-point 33 :   0.0564 0.0564 0.0000  plane waves:   11354
 k-point 34 :   0.0556 0.0556 0.0000  plane waves:   11354
 k-point 35 :   0.0547 0.0547 0.0000  plane waves:   11354
 k-point 36 :   0.0539 0.0539 0.0000  plane waves:   11354
 k-point 37 :   0.0530 0.0530 0.0000  plane waves:   11362
 k-point 38 :   0.0522 0.0522 0.0000  plane waves:   11378
 k-point 39 :   0.0513 0.0513 0.0000  plane waves:   11378
 k-point 40 :   0.0505 0.0505 0.0000  plane waves:   11370
 k-point 41 :   0.0497 0.0497 0.0000  plane waves:   11362
 k-point 42 :   0.0488 0.0488 0.0000  plane waves:   11362
 k-point 43 :   0.0480 0.0480 0.0000  plane waves:   11358
 k-point 44 :   0.0471 0.0471 0.0000  plane waves:   11350
 k-point 45 :   0.0463 0.0463 0.0000  plane waves:   11350
 k-point 46 :   0.0455 0.0455 0.0000  plane waves:   11350
 k-point 47 :   0.0446 0.0446 0.0000  plane waves:   11350
 k-point 48 :   0.0438 0.0438 0.0000  plane waves:   11350
 k-point 49 :   0.0429 0.0429 0.0000  plane waves:   11350
 k-point 50 :   0.0421 0.0421 0.0000  plane waves:   11350
 k-point 51 :   0.0412 0.0412 0.0000  plane waves:   11350
 k-point 52 :   0.0404 0.0404 0.0000  plane waves:   11350
 k-point 53 :   0.0396 0.0396 0.0000  plane waves:   11350
 k-point 54 :   0.0387 0.0387 0.0000  plane waves:   11342
 k-point 55 :   0.0379 0.0379 0.0000  plane waves:   11342
 k-point 56 :   0.0370 0.0370 0.0000  plane waves:   11342
 k-point 57 :   0.0362 0.0362 0.0000  plane waves:   11342
 k-point 58 :   0.0354 0.0354 0.0000  plane waves:   11350
 k-point 59 :   0.0345 0.0345 0.0000  plane waves:   11342
 k-point 60 :   0.0337 0.0337 0.0000  plane waves:   11334
 k-point 61 :   0.0328 0.0328 0.0000  plane waves:   11334
 k-point 62 :   0.0320 0.0320 0.0000  plane waves:   11334
 k-point 63 :   0.0311 0.0311 0.0000  plane waves:   11334
 k-point 64 :   0.0303 0.0303 0.0000  plane waves:   11330
 k-point 65 :   0.0295 0.0295 0.0000  plane waves:   11314
 k-point 66 :   0.0286 0.0286 0.0000  plane waves:   11314
 k-point 67 :   0.0278 0.0278 0.0000  plane waves:   11314
 k-point 68 :   0.0269 0.0269 0.0000  plane waves:   11314
 k-point 69 :   0.0261 0.0261 0.0000  plane waves:   11330
 k-point 70 :   0.0253 0.0253 0.0000  plane waves:   11330
 k-point 71 :   0.0244 0.0244 0.0000  plane waves:   11322
 k-point 72 :   0.0236 0.0236 0.0000  plane waves:   11322
 k-point 73 :   0.0227 0.0227 0.0000  plane waves:   11314
 k-point 74 :   0.0219 0.0219 0.0000  plane waves:   11330
 k-point 75 :   0.0210 0.0210 0.0000  plane waves:   11330
 k-point 76 :   0.0202 0.0202 0.0000  plane waves:   11330
 k-point 77 :   0.0194 0.0194 0.0000  plane waves:   11338
 k-point 78 :   0.0185 0.0185 0.0000  plane waves:   11338
 k-point 79 :   0.0177 0.0177 0.0000  plane waves:   11342
 k-point 80 :   0.0168 0.0168 0.0000  plane waves:   11358
 k-point 81 :   0.0160 0.0160 0.0000  plane waves:   11366
 k-point 82 :   0.0152 0.0152 0.0000  plane waves:   11366
 k-point 83 :   0.0143 0.0143 0.0000  plane waves:   11366
 k-point 84 :   0.0135 0.0135 0.0000  plane waves:   11366
 k-point 85 :   0.0126 0.0126 0.0000  plane waves:   11366
 k-point 86 :   0.0118 0.0118 0.0000  plane waves:   11358
 k-point 87 :   0.0109 0.0109 0.0000  plane waves:   11358
 k-point 88 :   0.0101 0.0101 0.0000  plane waves:   11366
 k-point 89 :   0.0093 0.0093 0.0000  plane waves:   11366
 k-point 90 :   0.0084 0.0084 0.0000  plane waves:   11366
 k-point 91 :   0.0076 0.0076 0.0000  plane waves:   11366
 k-point 92 :   0.0067 0.0067 0.0000  plane waves:   11366
 k-point 93 :   0.0059 0.0059 0.0000  plane waves:   11366
 k-point 94 :   0.0051 0.0051 0.0000  plane waves:   11366
 k-point 95 :   0.0042 0.0042 0.0000  plane waves:   11366
 k-point 96 :   0.0034 0.0034 0.0000  plane waves:   11366
 k-point 97 :   0.0025 0.0025 0.0000  plane waves:   11366
 k-point 98 :   0.0017 0.0017 0.0000  plane waves:   11366
 k-point 99 :   0.0008 0.0008 0.0000  plane waves:   11374
 k-point ** :   0.0000 0.0000 0.0000  plane waves:   11374
 k-point ** :   0.0000 0.0000 0.0000  plane waves:   11374
 k-point ** :   0.0013 0.0000 0.0000  plane waves:   11374
 k-point ** :   0.0025 0.0000 0.0000  plane waves:   11370
 k-point ** :   0.0038 0.0000 0.0000  plane waves:   11362
 k-point ** :   0.0051 0.0000 0.0000  plane waves:   11362
 k-point ** :   0.0063 0.0000 0.0000  plane waves:   11362
 k-point ** :   0.0076 0.0000 0.0000  plane waves:   11362
 k-point ** :   0.0088 0.0000 0.0000  plane waves:   11362
 k-point ** :   0.0101 0.0000 0.0000  plane waves:   11362
 k-point ** :   0.0114 0.0000 0.0000  plane waves:   11362
 k-point ** :   0.0126 0.0000 0.0000  plane waves:   11362
 k-point ** :   0.0139 0.0000 0.0000  plane waves:   11362
 k-point ** :   0.0152 0.0000 0.0000  plane waves:   11362
 k-point ** :   0.0164 0.0000 0.0000  plane waves:   11358
 k-point ** :   0.0177 0.0000 0.0000  plane waves:   11358
 k-point ** :   0.0189 0.0000 0.0000  plane waves:   11362
 k-point ** :   0.0202 0.0000 0.0000  plane waves:   11362
 k-point ** :   0.0215 0.0000 0.0000  plane waves:   11362
 k-point ** :   0.0227 0.0000 0.0000  plane waves:   11362
 k-point ** :   0.0240 0.0000 0.0000  plane waves:   11362
 k-point ** :   0.0253 0.0000 0.0000  plane waves:   11358
 k-point ** :   0.0265 0.0000 0.0000  plane waves:   11354
 k-point ** :   0.0278 0.0000 0.0000  plane waves:   11352
 k-point ** :   0.0290 0.0000 0.0000  plane waves:   11352
 k-point ** :   0.0303 0.0000 0.0000  plane waves:   11344
 k-point ** :   0.0316 0.0000 0.0000  plane waves:   11336
 k-point ** :   0.0328 0.0000 0.0000  plane waves:   11336
 k-point ** :   0.0341 0.0000 0.0000  plane waves:   11336
 k-point ** :   0.0354 0.0000 0.0000  plane waves:   11328
 k-point ** :   0.0366 0.0000 0.0000  plane waves:   11328
 k-point ** :   0.0379 0.0000 0.0000  plane waves:   11328
 k-point ** :   0.0391 0.0000 0.0000  plane waves:   11328
 k-point ** :   0.0404 0.0000 0.0000  plane waves:   11328
 k-point ** :   0.0417 0.0000 0.0000  plane waves:   11336
 k-point ** :   0.0429 0.0000 0.0000  plane waves:   11344
 k-point ** :   0.0442 0.0000 0.0000  plane waves:   11336
 k-point ** :   0.0455 0.0000 0.0000  plane waves:   11340
 k-point ** :   0.0467 0.0000 0.0000  plane waves:   11340
 k-point ** :   0.0480 0.0000 0.0000  plane waves:   11324
 k-point ** :   0.0492 0.0000 0.0000  plane waves:   11324
 k-point ** :   0.0505 0.0000 0.0000  plane waves:   11324
 k-point ** :   0.0518 0.0000 0.0000  plane waves:   11316
 k-point ** :   0.0530 0.0000 0.0000  plane waves:   11324
 k-point ** :   0.0543 0.0000 0.0000  plane waves:   11320
 k-point ** :   0.0556 0.0000 0.0000  plane waves:   11320
 k-point ** :   0.0568 0.0000 0.0000  plane waves:   11320
 k-point ** :   0.0581 0.0000 0.0000  plane waves:   11312
 k-point ** :   0.0593 0.0000 0.0000  plane waves:   11312
 k-point ** :   0.0606 0.0000 0.0000  plane waves:   11312
 k-point ** :   0.0619 0.0000 0.0000  plane waves:   11324
 k-point ** :   0.0631 0.0000 0.0000  plane waves:   11324
 k-point ** :   0.0644 0.0000 0.0000  plane waves:   11308
 k-point ** :   0.0657 0.0000 0.0000  plane waves:   11324
 k-point ** :   0.0669 0.0000 0.0000  plane waves:   11324
 k-point ** :   0.0682 0.0000 0.0000  plane waves:   11328
 k-point ** :   0.0694 0.0000 0.0000  plane waves:   11328
 k-point ** :   0.0707 0.0000 0.0000  plane waves:   11328
 k-point ** :   0.0720 0.0000 0.0000  plane waves:   11336
 k-point ** :   0.0732 0.0000 0.0000  plane waves:   11336
 k-point ** :   0.0745 0.0000 0.0000  plane waves:   11344
 k-point ** :   0.0758 0.0000 0.0000  plane waves:   11344
 k-point ** :   0.0770 0.0000 0.0000  plane waves:   11348
 k-point ** :   0.0783 0.0000 0.0000  plane waves:   11348
 k-point ** :   0.0795 0.0000 0.0000  plane waves:   11340
 k-point ** :   0.0808 0.0000 0.0000  plane waves:   11340
 k-point ** :   0.0821 0.0000 0.0000  plane waves:   11344
 k-point ** :   0.0833 0.0000 0.0000  plane waves:   11344
 k-point ** :   0.0846 0.0000 0.0000  plane waves:   11344
 k-point ** :   0.0859 0.0000 0.0000  plane waves:   11336
 k-point ** :   0.0871 0.0000 0.0000  plane waves:   11336
 k-point ** :   0.0884 0.0000 0.0000  plane waves:   11336
 k-point ** :   0.0896 0.0000 0.0000  plane waves:   11336
 k-point ** :   0.0909 0.0000 0.0000  plane waves:   11348
 k-point ** :   0.0922 0.0000 0.0000  plane waves:   11348
 k-point ** :   0.0934 0.0000 0.0000  plane waves:   11348
 k-point ** :   0.0947 0.0000 0.0000  plane waves:   11356
 k-point ** :   0.0960 0.0000 0.0000  plane waves:   11356
 k-point ** :   0.0972 0.0000 0.0000  plane waves:   11364
 k-point ** :   0.0985 0.0000 0.0000  plane waves:   11356
 k-point ** :   0.0997 0.0000 0.0000  plane waves:   11356
 k-point ** :   0.1010 0.0000 0.0000  plane waves:   11356
 k-point ** :   0.1023 0.0000 0.0000  plane waves:   11360
 k-point ** :   0.1035 0.0000 0.0000  plane waves:   11360
 k-point ** :   0.1048 0.0000 0.0000  plane waves:   11360
 k-point ** :   0.1061 0.0000 0.0000  plane waves:   11360
 k-point ** :   0.1073 0.0000 0.0000  plane waves:   11352
 k-point ** :   0.1086 0.0000 0.0000  plane waves:   11360
 k-point ** :   0.1098 0.0000 0.0000  plane waves:   11360
 k-point ** :   0.1111 0.0000 0.0000  plane waves:   11360
 k-point ** :   0.1124 0.0000 0.0000  plane waves:   11360
 k-point ** :   0.1136 0.0000 0.0000  plane waves:   11356
 k-point ** :   0.1149 0.0000 0.0000  plane waves:   11356
 k-point ** :   0.1162 0.0000 0.0000  plane waves:   11364
 k-point ** :   0.1174 0.0000 0.0000  plane waves:   11364
 k-point ** :   0.1187 0.0000 0.0000  plane waves:   11356
 k-point ** :   0.1199 0.0000 0.0000  plane waves:   11356
 k-point ** :   0.1212 0.0000 0.0000  plane waves:   11356
 k-point ** :   0.1225 0.0000 0.0000  plane waves:   11356
 k-point ** :   0.1237 0.0000 0.0000  plane waves:   11356
 k-point ** :   0.1250 0.0000 0.0000  plane waves:   11364

 maximum and minimum number of plane-waves per node :       966      926

 maximum number of plane-waves:     11386
 maximum index in each direction: 
   IXMAX=    6   IYMAX=    6   IZMAX=   32
   IXMIN=   -7   IYMIN=   -7   IZMIN=  -32

 NGX is ok and might be reduce to  28
 NGY is ok and might be reduce to  28
 NGZ is ok and might be reduce to 130

 parallel 3D FFT for wavefunctions:
    minimum data exchange during FFTs selected (reduces bandwidth)
 parallel 3D FFT for charge:
    minimum data exchange during FFTs selected (reduces bandwidth)


 total amount of memory used by VASP on root node   197567. kBytes
========================================================================

   base      :      30000. kBytes
   nonl-proj :       6228. kBytes
   fftplans  :      22850. kBytes
   grid      :      19066. kBytes
   one-center:         12. kBytes
   wavefun   :     119411. kBytes
 
     INWAV:  cpu time    0.0000: real time    0.0001
 initial charge density was supplied:
 number of electron      24.0000000 magnetization       0.0000000      0.0000000     -0.0044129
 keeping initial charge density in first step


--------------------------------------------------------------------------------------------------------


 Maximum index for augmentation-charges         3474 (set IRDMAX)


--------------------------------------------------------------------------------------------------------


 First call to EWALD:  gamma=   0.260
 Maximum number of real-space cells 5x 5x 1
 Maximum number of reciprocal cells 2x 2x 7

 FEWALD executed in parallel
    FEWALD:  cpu time    0.0017: real time    0.0017


----------------------------------------- Iteration    1(   1)  ---------------------------------------


    POTLOK:  cpu time    0.2409: real time    0.2410
    SETDIJ:  cpu time    0.5139: real time    0.5139
     EDDAV:  cpu time    8.0608: real time    8.0636
       DOS:  cpu time    0.0048: real time    0.0048
    --------------------------------------------
      LOOP:  cpu time    8.8229: real time    8.8553

 eigenvalue-minimisations  : 16272
 total energy-change (2. order) : 0.1536676E+03  (-0.6358731E+03)
 number of electron      24.0000000 magnetization       0.0000000      0.0000000     -0.0044129
 augmentation part       24.0000000 magnetization       0.0000000      0.0000000     -0.0044129

 Free energy of the ion-electron system (eV)
  ---------------------------------------------------
  alpha Z        PSCENC =         9.37520678
  Ewald energy   TEWEN  =      3892.48829513
  -Hartree energ DENC   =     -4633.09098584
  -exchange      EXHF   =         0.00000000
  -V(xc)+E(xc)   XCENC  =        82.67249227
  PAW double counting   =      2579.78743615    -2583.84766895
  entropy T*S    EENTRO =        -0.00010308
  eigenvalues    EBANDS =       -76.48037939
  atomic energy  EATOM  =       882.76334323
  Solvation  Ediel_sol  =         0.00000000
  ---------------------------------------------------
  free energy    TOTEN  =       153.66763630 eV

  energy without entropy =      153.66773938  energy(sigma->0) =      153.66768784


--------------------------------------------------------------------------------------------------------




----------------------------------------- Iteration    1(   2)  ---------------------------------------


     EDDAV:  cpu time    9.6853: real time    9.6910
       DOS:  cpu time    0.0049: real time    0.0049
    --------------------------------------------
      LOOP:  cpu time    9.6907: real time    9.7012

 eigenvalue-minimisations  : 20888
 total energy-change (2. order) :-0.1658114E+03  (-0.1384864E+03)
 number of electron      24.0000000 magnetization       0.0000000      0.0000000     -0.0044129
 augmentation part       24.0000000 magnetization       0.0000000      0.0000000     -0.0044129

 Free energy of the ion-electron system (eV)
  ---------------------------------------------------
  alpha Z        PSCENC =         9.37520678
  Ewald energy   TEWEN  =      3892.48829513
  -Hartree energ DENC   =     -4633.09098584
  -exchange      EXHF   =         0.00000000
  -V(xc)+E(xc)   XCENC  =        82.67249227
  PAW double counting   =      2579.78743615    -2583.84766895
  entropy T*S    EENTRO =        -0.00012777
  eigenvalues    EBANDS =      -242.29176688
  atomic energy  EATOM  =       882.76334323
  Solvation  Ediel_sol  =         0.00000000
  ---------------------------------------------------
  free energy    TOTEN  =       -12.14377588 eV

  energy without entropy =      -12.14364811  energy(sigma->0) =      -12.14371200


--------------------------------------------------------------------------------------------------------




----------------------------------------- Iteration    1(   3)  ---------------------------------------


     EDDAV:  cpu time    9.4431: real time    9.4505
       DOS:  cpu time    0.0049: real time    0.0049
    --------------------------------------------
      LOOP:  cpu time    9.4485: real time    9.4822

 eigenvalue-minimisations  : 20218
 total energy-change (2. order) :-0.3407188E+02  (-0.3151591E+02)
 number of electron      24.0000000 magnetization       0.0000000      0.0000000     -0.0044129
 augmentation part       24.0000000 magnetization       0.0000000      0.0000000     -0.0044129

 Free energy of the ion-electron system (eV)
  ---------------------------------------------------
  alpha Z        PSCENC =         9.37520678
  Ewald energy   TEWEN  =      3892.48829513
  -Hartree energ DENC   =     -4633.09098584
  -exchange      EXHF   =         0.00000000
  -V(xc)+E(xc)   XCENC  =        82.67249227
  PAW double counting   =      2579.78743615    -2583.84766895
  entropy T*S    EENTRO =        -0.00010156
  eigenvalues    EBANDS =      -276.36367299
  atomic energy  EATOM  =       882.76334323
  Solvation  Ediel_sol  =         0.00000000
  ---------------------------------------------------
  free energy    TOTEN  =       -46.21565579 eV

  energy without entropy =      -46.21555422  energy(sigma->0) =      -46.21560500


--------------------------------------------------------------------------------------------------------




----------------------------------------- Iteration    1(   4)  ---------------------------------------


     EDDAV:  cpu time    7.7067: real time    7.7149
       DOS:  cpu time    0.0049: real time    0.0049
    --------------------------------------------
      LOOP:  cpu time    7.7127: real time    7.7771

 eigenvalue-minimisations  : 15308
 total energy-change (2. order) :-0.1628822E+01  (-0.1562236E+01)
 number of electron      24.0000000 magnetization       0.0000000      0.0000000     -0.0044129
 augmentation part       24.0000000 magnetization       0.0000000      0.0000000     -0.0044129

 Free energy of the ion-electron system (eV)
  ---------------------------------------------------
  alpha Z        PSCENC =         9.37520678
  Ewald energy   TEWEN  =      3892.48829513
  -Hartree energ DENC   =     -4633.09098584
  -exchange      EXHF   =         0.00000000
  -V(xc)+E(xc)   XCENC  =        82.67249227
  PAW double counting   =      2579.78743615    -2583.84766895
  entropy T*S    EENTRO =        -0.00024037
  eigenvalues    EBANDS =      -277.99235645
  atomic energy  EATOM  =       882.76334323
  Solvation  Ediel_sol  =         0.00000000
  ---------------------------------------------------
  free energy    TOTEN  =       -47.84447805 eV

  energy without entropy =      -47.84423768  energy(sigma->0) =      -47.84435787


--------------------------------------------------------------------------------------------------------




----------------------------------------- Iteration    1(   5)  ---------------------------------------


     EDDAV:  cpu time    9.0256: real time    9.0286
       DOS:  cpu time    0.0050: real time    0.0050
 


 total charge     
 
# of ion     s       p       d       tot
----------------------------------------
  1        0.883   1.794   0.000   2.677
  2        0.883   1.794   0.000   2.678
  3        0.883   1.794   0.000   2.677
  4        0.883   1.794   0.000   2.677
  5        0.883   1.794   0.000   2.677
  6        0.883   1.794   0.000   2.677
------------------------------------------------
tot        5.299  10.765   0.000  16.065
 


 magnetization (x)
 
# of ion     s       p       d       tot
----------------------------------------
  1       -0.000  -0.000   0.000  -0.000
  2       -0.000   0.000   0.000   0.000
  3       -0.000   0.000   0.000   0.000
  4       -0.000   0.000   0.000  -0.000
  5       -0.000  -0.000   0.000  -0.000
  6       -0.000   0.000   0.000   0.000
------------------------------------------------
tot       -0.000   0.000   0.000  -0.000
 


 magnetization (y)
 
# of ion     s       p       d       tot
----------------------------------------
  1        0.000   0.000   0.000   0.000
  2       -0.000  -0.000   0.000  -0.000
  3       -0.000  -0.000   0.000  -0.000
  4        0.000   0.000   0.000   0.000
  5       -0.000   0.000   0.000   0.000
  6       -0.000  -0.000   0.000  -0.000
------------------------------------------------
tot       -0.000  -0.000   0.000  -0.000
 


 magnetization (z)
 
# of ion     s       p       d       tot
----------------------------------------
  1        0.000  -0.002   0.000  -0.002
  2        0.000   0.000   0.000   0.000
  3        0.000   0.000   0.000   0.000
  4        0.000  -0.002   0.000  -0.002
  5        0.000  -0.001   0.000  -0.001
  6        0.000   0.000   0.000   0.000
------------------------------------------------
tot        0.000  -0.004   0.000  -0.004
 
    --------------------------------------------
      LOOP:  cpu time    9.0347: real time    9.0543

 eigenvalue-minimisations  : 19050
 total energy-change (2. order) :-0.4774919E-01  (-0.4758057E-01)
 number of electron      24.0000000 magnetization       0.0000000      0.0000000     -0.0044129
 augmentation part       24.0000000 magnetization       0.0000000      0.0000000     -0.0044129

 Free energy of the ion-electron system (eV)
  ---------------------------------------------------
  alpha Z        PSCENC =         9.37520678
  Ewald energy   TEWEN  =      3892.48829513
  -Hartree energ DENC   =     -4633.09098584
  -exchange      EXHF   =         0.00000000
  -V(xc)+E(xc)   XCENC  =        82.67249227
  PAW double counting   =      2579.78743615    -2583.84766895
  entropy T*S    EENTRO =        -0.00026874
  eigenvalues    EBANDS =      -278.04007728
  atomic energy  EATOM  =       882.76334323
  Solvation  Ediel_sol  =         0.00000000
  ---------------------------------------------------
  free energy    TOTEN  =       -47.89222725 eV

  energy without entropy =      -47.89195851  energy(sigma->0) =      -47.89209288


--------------------------------------------------------------------------------------------------------




----------------------------------------- Iteration    1(   6)  ---------------------------------------


     EDDAV:  cpu time    9.7128: real time    9.7194
       DOS:  cpu time    0.0050: real time    0.0050
    --------------------------------------------
      LOOP:  cpu time    9.7183: real time    9.8122

 eigenvalue-minimisations  : 21352
 total energy-change (2. order) :-0.2097042E-02  (-0.2096345E-02)
 number of electron      24.0000000 magnetization       0.0000000      0.0000000     -0.0044129
 augmentation part       24.0000000 magnetization       0.0000000      0.0000000     -0.0044129

 Free energy of the ion-electron system (eV)
  ---------------------------------------------------
  alpha Z        PSCENC =         9.37520678
  Ewald energy   TEWEN  =      3892.48829513
  -Hartree energ DENC   =     -4633.09098584
  -exchange      EXHF   =         0.00000000
  -V(xc)+E(xc)   XCENC  =        82.67249227
  PAW double counting   =      2579.78743615    -2583.84766895
  entropy T*S    EENTRO =        -0.00026947
  eigenvalues    EBANDS =      -278.04217359
  atomic energy  EATOM  =       882.76334323
  Solvation  Ediel_sol  =         0.00000000
  ---------------------------------------------------
  free energy    TOTEN  =       -47.89432429 eV

  energy without entropy =      -47.89405482  energy(sigma->0) =      -47.89418955


--------------------------------------------------------------------------------------------------------




----------------------------------------- Iteration    1(   7)  ---------------------------------------


     EDDAV:  cpu time    9.7161: real time    9.7217
       DOS:  cpu time    0.0049: real time    0.0049
    --------------------------------------------
      LOOP:  cpu time    9.7215: real time    9.7526

 eigenvalue-minimisations  : 21192
 total energy-change (2. order) :-0.7188636E-04  (-0.7188548E-04)
 number of electron      24.0000000 magnetization       0.0000000      0.0000000     -0.0044129
 augmentation part       24.0000000 magnetization       0.0000000      0.0000000     -0.0044129

 Free energy of the ion-electron system (eV)
  ---------------------------------------------------
  alpha Z        PSCENC =         9.37520678
  Ewald energy   TEWEN  =      3892.48829513
  -Hartree energ DENC   =     -4633.09098584
  -exchange      EXHF   =         0.00000000
  -V(xc)+E(xc)   XCENC  =        82.67249227
  PAW double counting   =      2579.78743615    -2583.84766895
  entropy T*S    EENTRO =        -0.00026960
  eigenvalues    EBANDS =      -278.04224535
  atomic energy  EATOM  =       882.76334323
  Solvation  Ediel_sol  =         0.00000000
  ---------------------------------------------------
  free energy    TOTEN  =       -47.89439618 eV

  energy without entropy =      -47.89412658  energy(sigma->0) =      -47.89426138


--------------------------------------------------------------------------------------------------------




----------------------------------------- Iteration    1(   8)  ---------------------------------------


     EDDAV:  cpu time   10.0925: real time   10.0962
       DOS:  cpu time    0.0049: real time    0.0049
    --------------------------------------------
      LOOP:  cpu time   10.0984: real time   10.1539

 eigenvalue-minimisations  : 22264
 total energy-change (2. order) :-0.3234670E-05  (-0.3234336E-05)
 number of electron      24.0000000 magnetization       0.0000000      0.0000000     -0.0044129
 augmentation part       24.0000000 magnetization       0.0000000      0.0000000     -0.0044129

 Free energy of the ion-electron system (eV)
  ---------------------------------------------------
  alpha Z        PSCENC =         9.37520678
  Ewald energy   TEWEN  =      3892.48829513
  -Hartree energ DENC   =     -4633.09098584
  -exchange      EXHF   =         0.00000000
  -V(xc)+E(xc)   XCENC  =        82.67249227
  PAW double counting   =      2579.78743615    -2583.84766895
  entropy T*S    EENTRO =        -0.00026960
  eigenvalues    EBANDS =      -278.04224858
  atomic energy  EATOM  =       882.76334323
  Solvation  Ediel_sol  =         0.00000000
  ---------------------------------------------------
  free energy    TOTEN  =       -47.89439941 eV

  energy without entropy =      -47.89412981  energy(sigma->0) =      -47.89426461


--------------------------------------------------------------------------------------------------------




----------------------------------------- Iteration    1(   9)  ---------------------------------------


     EDDAV:  cpu time    9.8806: real time    9.8884
       DOS:  cpu time    0.0050: real time    0.0050
    --------------------------------------------
      LOOP:  cpu time    9.8866: real time    9.9270

 eigenvalue-minimisations  : 21598
 total energy-change (2. order) :-0.6350911E-07  (-0.6395538E-07)
 number of electron      24.0000000 magnetization       0.0000000      0.0000000     -0.0044129
 augmentation part       24.0000000 magnetization       0.0000000      0.0000000     -0.0044129

 Free energy of the ion-electron system (eV)
  ---------------------------------------------------
  alpha Z        PSCENC =         9.37520678
  Ewald energy   TEWEN  =      3892.48829513
  -Hartree energ DENC   =     -4633.09098584
  -exchange      EXHF   =         0.00000000
  -V(xc)+E(xc)   XCENC  =        82.67249227
  PAW double counting   =      2579.78743615    -2583.84766895
  entropy T*S    EENTRO =        -0.00026960
  eigenvalues    EBANDS =      -278.04224865
  atomic energy  EATOM  =       882.76334323
  Solvation  Ediel_sol  =         0.00000000
  ---------------------------------------------------
  free energy    TOTEN  =       -47.89439947 eV

  energy without entropy =      -47.89412988  energy(sigma->0) =      -47.89426468


--------------------------------------------------------------------------------------------------------




----------------------------------------- Iteration    1(  10)  ---------------------------------------


     EDDAV:  cpu time    9.1692: real time    9.1718
       DOS:  cpu time    0.0048: real time    0.0048
 


 total charge     
 
# of ion     s       p       d       tot
----------------------------------------
  1        0.883   1.795   0.000   2.677
  2        0.883   1.795   0.000   2.677
  3        0.883   1.795   0.000   2.677
  4        0.883   1.795   0.000   2.677
  5        0.883   1.795   0.000   2.677
  6        0.883   1.795   0.000   2.677
------------------------------------------------
tot        5.295  10.768   0.000  16.063
 


 magnetization (x)
 
# of ion     s       p       d       tot
----------------------------------------
  1        0.000  -0.000   0.000   0.000
  2        0.000   0.000   0.000   0.000
  3        0.000   0.000   0.000   0.000
  4        0.000  -0.000   0.000  -0.000
  5        0.000  -0.000   0.000  -0.000
  6        0.000   0.000   0.000   0.000
------------------------------------------------
tot        0.000   0.000   0.000   0.000
 


 magnetization (y)
 
# of ion     s       p       d       tot
----------------------------------------
  1       -0.000   0.000   0.000   0.000
  2       -0.000  -0.000   0.000  -0.000
  3       -0.000   0.000   0.000  -0.000
  4        0.000   0.000   0.000   0.000
  5       -0.000  -0.000   0.000  -0.000
  6       -0.000  -0.000   0.000  -0.000
------------------------------------------------
tot       -0.000   0.000   0.000  -0.000
 


 magnetization (z)
 
# of ion     s       p       d       tot
----------------------------------------
  1       -0.000  -0.002   0.000  -0.002
  2       -0.000   0.000   0.000   0.000
  3       -0.000   0.000   0.000   0.000
  4       -0.000  -0.001   0.000  -0.001
  5       -0.000  -0.001   0.000  -0.001
  6       -0.000   0.000   0.000   0.000
------------------------------------------------
tot       -0.000  -0.004   0.000  -0.004
 
    --------------------------------------------
      LOOP:  cpu time    9.1785: real time    9.1876

 eigenvalue-minimisations  : 19392
 total energy-change (2. order) :-0.3315108E-08  (-0.2908151E-08)
 number of electron      24.0000000 magnetization       0.0000000      0.0000000     -0.0044129
 augmentation part       24.0000000 magnetization       0.0000000      0.0000000     -0.0044129

 Free energy of the ion-electron system (eV)
  ---------------------------------------------------
  alpha Z        PSCENC =         9.37520678
  Ewald energy   TEWEN  =      3892.48829513
  -Hartree energ DENC   =     -4633.09098584
  -exchange      EXHF   =         0.00000000
  -V(xc)+E(xc)   XCENC  =        82.67249227
  PAW double counting   =      2579.78743615    -2583.84766895
  entropy T*S    EENTRO =        -0.00026960
  eigenvalues    EBANDS =      -278.04224865
  atomic energy  EATOM  =       882.76334323
  Solvation  Ediel_sol  =         0.00000000
  ---------------------------------------------------
  free energy    TOTEN  =       -47.89439948 eV

  energy without entropy =      -47.89412988  energy(sigma->0) =      -47.89426468


--------------------------------------------------------------------------------------------------------




----------------------------------------- Iteration    1(  11)  ---------------------------------------


     EDDAV:  cpu time    6.0858: real time    6.0930
       DOS:  cpu time    0.0048: real time    0.0048
    --------------------------------------------
      LOOP:  cpu time    6.0911: real time    6.1894

 eigenvalue-minimisations  : 10444
 total energy-change (2. order) :-0.9185896E-10  (-0.1069061E-09)
 number of electron      24.0000000 magnetization       0.0000000      0.0000000     -0.0044129
 augmentation part       24.0000000 magnetization       0.0000000      0.0000000     -0.0044129

 Free energy of the ion-electron system (eV)
  ---------------------------------------------------
  alpha Z        PSCENC =         9.37520678
  Ewald energy   TEWEN  =      3892.48829513
  -Hartree energ DENC   =     -4633.09098584
  -exchange      EXHF   =         0.00000000
  -V(xc)+E(xc)   XCENC  =        82.67249227
  PAW double counting   =      2579.78743615    -2583.84766895
  entropy T*S    EENTRO =        -0.00026960
  eigenvalues    EBANDS =      -278.04224865
  atomic energy  EATOM  =       882.76334323
  Solvation  Ediel_sol  =         0.00000000
  ---------------------------------------------------
  free energy    TOTEN  =       -47.89439948 eV

  energy without entropy =      -47.89412988  energy(sigma->0) =      -47.89426468


--------------------------------------------------------------------------------------------------------




----------------------------------------- Iteration    1(  12)  ---------------------------------------


     EDDAV:  cpu time    5.2622: real time    5.2656
       DOS:  cpu time    0.0048: real time    0.0048
    --------------------------------------------
      LOOP:  cpu time    5.2680: real time    5.3873

 eigenvalue-minimisations  :  7958
 total energy-change (2. order) :-0.7730705E-10  (-0.2464140E-10)
 number of electron      24.0000000 magnetization       0.0000000      0.0000000     -0.0044129
 augmentation part       24.0000000 magnetization       0.0000000      0.0000000     -0.0044129

 Free energy of the ion-electron system (eV)
  ---------------------------------------------------
  alpha Z        PSCENC =         9.37520678
  Ewald energy   TEWEN  =      3892.48829513
  -Hartree energ DENC   =     -4633.09098584
  -exchange      EXHF   =         0.00000000
  -V(xc)+E(xc)   XCENC  =        82.67249227
  PAW double counting   =      2579.78743615    -2583.84766895
  entropy T*S    EENTRO =        -0.00026960
  eigenvalues    EBANDS =      -278.04224865
  atomic energy  EATOM  =       882.76334323
  Solvation  Ediel_sol  =         0.00000000
  ---------------------------------------------------
  free energy    TOTEN  =       -47.89439948 eV

  energy without entropy =      -47.89412988  energy(sigma->0) =      -47.89426468


--------------------------------------------------------------------------------------------------------




----------------------------------------- Iteration    1(  13)  ---------------------------------------


     EDDAV:  cpu time    5.1227: real time    5.1293
       DOS:  cpu time    0.0048: real time    0.0048
    --------------------------------------------
      LOOP:  cpu time    5.1280: real time    5.1981

 eigenvalue-minimisations  :  7600
 total energy-change (2. order) : 0.2291927E-09  (-0.1133743E-10)
 number of electron      24.0000000 magnetization       0.0000000      0.0000000     -0.0044129
 augmentation part       24.0000000 magnetization       0.0000000      0.0000000     -0.0044129

 Free energy of the ion-electron system (eV)
  ---------------------------------------------------
  alpha Z        PSCENC =         9.37520678
  Ewald energy   TEWEN  =      3892.48829513
  -Hartree energ DENC   =     -4633.09098584
  -exchange      EXHF   =         0.00000000
  -V(xc)+E(xc)   XCENC  =        82.67249227
  PAW double counting   =      2579.78743615    -2583.84766895
  entropy T*S    EENTRO =        -0.00026960
  eigenvalues    EBANDS =      -278.04224865
  atomic energy  EATOM  =       882.76334323
  Solvation  Ediel_sol  =         0.00000000
  ---------------------------------------------------
  free energy    TOTEN  =       -47.89439948 eV

  energy without entropy =      -47.89412988  energy(sigma->0) =      -47.89426468


--------------------------------------------------------------------------------------------------------




----------------------------------------- Iteration    1(  14)  ---------------------------------------


     EDDAV:  cpu time    5.1577: real time    5.1596
       DOS:  cpu time    0.0048: real time    0.0048
    --------------------------------------------
      LOOP:  cpu time    5.1629: real time    5.1716

 eigenvalue-minimisations  :  7600
 total energy-change (2. order) :-0.1639364E-09  (-0.6115825E-11)
 number of electron      24.0000000 magnetization       0.0000000      0.0000000     -0.0044129
 augmentation part       24.0000000 magnetization       0.0000000      0.0000000     -0.0044129

 Free energy of the ion-electron system (eV)
  ---------------------------------------------------
  alpha Z        PSCENC =         9.37520678
  Ewald energy   TEWEN  =      3892.48829513
  -Hartree energ DENC   =     -4633.09098584
  -exchange      EXHF   =         0.00000000
  -V(xc)+E(xc)   XCENC  =        82.67249227
  PAW double counting   =      2579.78743615    -2583.84766895
  entropy T*S    EENTRO =        -0.00026960
  eigenvalues    EBANDS =      -278.04224865
  atomic energy  EATOM  =       882.76334323
  Solvation  Ediel_sol  =         0.00000000
  ---------------------------------------------------
  free energy    TOTEN  =       -47.89439948 eV

  energy without entropy =      -47.89412988  energy(sigma->0) =      -47.89426468


--------------------------------------------------------------------------------------------------------




----------------------------------------- Iteration    1(  15)  ---------------------------------------


     EDDAV:  cpu time    5.1235: real time    5.1254
       DOS:  cpu time    0.0050: real time    0.0050
 


 total charge     
 
# of ion     s       p       d       tot
----------------------------------------
  1        0.883   1.795   0.000   2.677
  2        0.883   1.795   0.000   2.677
  3        0.883   1.795   0.000   2.677
  4        0.883   1.795   0.000   2.677
  5        0.883   1.795   0.000   2.677
  6        0.883   1.795   0.000   2.677
------------------------------------------------
tot        5.295  10.768   0.000  16.063
 


 magnetization (x)
 
# of ion     s       p       d       tot
----------------------------------------
  1       -0.000   0.000   0.000  -0.000
  2       -0.000  -0.000   0.000  -0.000
  3        0.000  -0.000   0.000   0.000
  4        0.000   0.000   0.000   0.000
  5        0.000  -0.000   0.000   0.000
  6       -0.000   0.000   0.000  -0.000
------------------------------------------------
tot       -0.000  -0.000   0.000  -0.000
 


 magnetization (y)
 
# of ion     s       p       d       tot
----------------------------------------
  1       -0.000   0.000   0.000   0.000
  2        0.000  -0.000   0.000  -0.000
  3        0.000  -0.000   0.000  -0.000
  4        0.000   0.000   0.000   0.000
  5       -0.000   0.000   0.000   0.000
  6       -0.000  -0.000   0.000  -0.000
------------------------------------------------
tot       -0.000   0.000   0.000  -0.000
 


 magnetization (z)
 
# of ion     s       p       d       tot
----------------------------------------
  1       -0.000  -0.002   0.000  -0.002
  2       -0.000   0.000   0.000   0.000
  3       -0.000   0.000   0.000   0.000
  4       -0.000  -0.001   0.000  -0.001
  5       -0.000  -0.001   0.000  -0.001
  6       -0.000   0.000   0.000   0.000
------------------------------------------------
tot       -0.000  -0.004   0.000  -0.004
 
    --------------------------------------------
      LOOP:  cpu time    5.1327: real time    5.1927

 eigenvalue-minimisations  :  7600
 total energy-change (2. order) : 0.3228706E-09  (-0.3485091E-11)
 number of electron      24.0000000 magnetization       0.0000000      0.0000000     -0.0044129
 augmentation part       24.0000000 magnetization       0.0000000      0.0000000     -0.0044129

 Free energy of the ion-electron system (eV)
  ---------------------------------------------------
  alpha Z        PSCENC =         9.37520678
  Ewald energy   TEWEN  =      3892.48829513
  -Hartree energ DENC   =     -4633.09098584
  -exchange      EXHF   =         0.00000000
  -V(xc)+E(xc)   XCENC  =        82.67249227
  PAW double counting   =      2579.78743615    -2583.84766895
  entropy T*S    EENTRO =        -0.00026960
  eigenvalues    EBANDS =      -278.04224865
  atomic energy  EATOM  =       882.76334323
  Solvation  Ediel_sol  =         0.00000000
  ---------------------------------------------------
  free energy    TOTEN  =       -47.89439948 eV

  energy without entropy =      -47.89412988  energy(sigma->0) =      -47.89426468


--------------------------------------------------------------------------------------------------------




 average (electrostatic) potential at core
  the test charge radii are     0.6991
  (the norm of the test charge is              1.0000)
       1 -58.2035       2 -58.2034       3 -58.2034       4 -58.2033       5 -58.2033
       6 -58.2032
 
 
 
 E-fermi :  -2.7354     XC(G=0):  -2.2203     alpha+bet : -1.9064


 k-point     1 :       0.0833    0.0833    0.0000
  band No.  band energies     occupation 
      1     -22.1239      1.00000
      2     -22.1229      1.00000
      3     -16.5739      1.00000
      4     -16.5738      1.00000
      5     -16.5730      1.00000
      6     -16.5728      1.00000
      7     -14.7102      1.00000
      8     -14.7101      1.00000
      9     -14.7093      1.00000
     10     -14.7092      1.00000
     11     -12.4237      1.00000
     12     -12.4237      1.00000
     13     -12.4233      1.00000
     14     -12.4232      1.00000
     15     -10.1793      1.00000
     16     -10.1768      1.00000
     17      -6.4363      1.00000
     18      -6.4359      1.00000
     19      -6.1229      1.00000
     20      -6.1225      1.00000
     21      -4.0948      1.00000
     22      -4.0948      1.00000
     23      -4.0920      1.00000
     24      -4.0920      1.00000
     25      -1.4351      0.00000
     26      -1.4351      0.00000
     27      -1.4322      0.00000
     28      -1.4322      0.00000
     29       0.7389      0.00000
     30       0.7522      0.00000
     31       1.5139      0.00000
     32       1.5541      0.00000
     33       1.7694      0.00000
     34       1.7892      0.00000
     35       2.6096      0.00000
     36       2.6421      0.00000
     37       3.2572      0.00000
     38       3.3085      0.00000

 k-point     2 :       0.0825    0.0825    0.0000
  band No.  band energies     occupation 
      1     -22.1272      1.00000
      2     -22.1262      1.00000
      3     -16.5605      1.00000
      4     -16.5604      1.00000
      5     -16.5596      1.00000
      6     -16.5594      1.00000
      7     -14.7150      1.00000
      8     -14.7149      1.00000
      9     -14.7142      1.00000
     10     -14.7141      1.00000
     11     -12.4386      1.00000
     12     -12.4386      1.00000
     13     -12.4382      1.00000
     14     -12.4381      1.00000
     15     -10.1832      1.00000
     16     -10.1808      1.00000
     17      -6.4238      1.00000
     18      -6.4234      1.00000
     19      -6.1165      1.00000
     20      -6.1161      1.00000
     21      -4.0811      1.00000
     22      -4.0811      1.00000
     23      -4.0783      1.00000
     24      -4.0783      1.00000
     25      -1.4478      0.00000
     26      -1.4478      0.00000
     27      -1.4449      0.00000
[...]
  0.000   0.000   0.000   0.000   0.000   0.000   0.000   0.000
  0.000   0.000   0.667   0.000   0.000   0.000   0.000   0.000
  0.000   0.000   0.000   0.667   0.000   0.000   0.000   0.000
  0.000   0.000   0.000   0.000   0.667   0.000   0.000   0.000
  0.000   0.000   0.000   0.000   0.000   0.000   0.000   0.000
  0.000   0.000   0.000   0.000   0.000   0.000   0.000   0.000
  0.000   0.000   0.000   0.000   0.000   0.000   0.000   0.000
 total augmentation occupancy for first ion, spin component:           2
  0.500   0.000   0.000   0.000   0.000   0.000   0.000   0.000
  0.000   0.000   0.000   0.000   0.000   0.000   0.000   0.000
  0.000   0.000   0.167   0.000   0.000   0.000   0.000   0.000
  0.000   0.000   0.000   0.167   0.000   0.000   0.000   0.000
  0.000   0.000   0.000   0.000   0.167   0.000   0.000   0.000
  0.000   0.000   0.000   0.000   0.000   0.000   0.000   0.000
  0.000   0.000   0.000   0.000   0.000   0.000   0.000   0.000
  0.000   0.000   0.000   0.000   0.000   0.000   0.000   0.000
 total augmentation occupancy for first ion, spin component:           3
  0.500   0.000   0.000   0.000   0.000   0.000   0.000   0.000
  0.000   0.000   0.000   0.000   0.000   0.000   0.000   0.000
  0.000   0.000   0.167   0.000   0.000   0.000   0.000   0.000
  0.000   0.000   0.000   0.167   0.000   0.000   0.000   0.000
  0.000   0.000   0.000   0.000   0.167   0.000   0.000   0.000
  0.000   0.000   0.000   0.000   0.000   0.000   0.000   0.000
  0.000   0.000   0.000   0.000   0.000   0.000   0.000   0.000
  0.000   0.000   0.000   0.000   0.000   0.000   0.000   0.000
 total augmentation occupancy for first ion, spin component:           4
  0.500   0.000   0.000   0.000   0.000   0.000   0.000   0.000
  0.000   0.000   0.000   0.000   0.000   0.000   0.000   0.000
  0.000   0.000   0.167   0.000   0.000   0.000   0.000   0.000
  0.000   0.000   0.000   0.167   0.000   0.000   0.000   0.000
  0.000   0.000   0.000   0.000   0.167   0.000   0.000   0.000
  0.000   0.000   0.000   0.000   0.000   0.000   0.000   0.000
  0.000   0.000   0.000   0.000   0.000   0.000   0.000   0.000
  0.000   0.000   0.000   0.000   0.000   0.000   0.000   0.000


------------------------ aborting loop because EDIFF is reached ----------------------------------------


 


 total charge     
 
# of ion     s       p       d       tot
----------------------------------------
  1        0.883   1.795   0.000   2.677
  2        0.883   1.795   0.000   2.677
  3        0.883   1.795   0.000   2.677
  4        0.883   1.795   0.000   2.677
  5        0.883   1.795   0.000   2.677
  6        0.883   1.795   0.000   2.677
------------------------------------------------
tot        5.295  10.768   0.000  16.063
 


 magnetization (x)
 
# of ion     s       p       d       tot
----------------------------------------
  1       -0.000   0.000   0.000  -0.000
  2       -0.000  -0.000   0.000  -0.000
  3        0.000  -0.000   0.000   0.000
  4        0.000   0.000   0.000   0.000
  5        0.000  -0.000   0.000   0.000
  6       -0.000   0.000   0.000  -0.000
------------------------------------------------
tot       -0.000  -0.000   0.000  -0.000
 


 magnetization (y)
 
# of ion     s       p       d       tot
----------------------------------------
  1       -0.000   0.000   0.000   0.000
  2        0.000  -0.000   0.000  -0.000
  3        0.000  -0.000   0.000  -0.000
  4        0.000   0.000   0.000   0.000
  5       -0.000   0.000   0.000   0.000
  6       -0.000  -0.000   0.000  -0.000
------------------------------------------------
tot       -0.000   0.000   0.000  -0.000
 


 magnetization (z)
 
# of ion     s       p       d       tot
----------------------------------------
  1       -0.000  -0.002   0.000  -0.002
  2       -0.000   0.000   0.000   0.000
  3       -0.000   0.000   0.000   0.000
  4       -0.000  -0.001   0.000  -0.001
  5       -0.000  -0.001   0.000  -0.001
  6       -0.000   0.000   0.000   0.000
------------------------------------------------
tot       -0.000  -0.004   0.000  -0.004
 
    CHARGE:  cpu time    0.7712: real time    0.7714
    FORLOC:  cpu time    0.0047: real time    0.0047
    FORNL :  cpu time    2.1587: real time    2.1590
    STRESS:  cpu time    5.0979: real time    5.0986
    FORCOR:  cpu time    0.2313: real time    0.2314
    FORHAR:  cpu time    0.0216: real time    0.0216
    OFIELD:  cpu time    0.0022: real time    0.0022

  DFT-D2 method for vdW energy calculation
  -------------------------------------------------------------------

  Parameters of vdW forcefield:
         C6(Jnm^6/mol)     R0(A)
   -----------------------------
   C        1.750          1.452

  IVDW =  10
  VDW_RADIUS =    50.000 A
  VDW_S6 =     0.750
  VDW_SR =     1.000
  VDW_D =    20.000
  LVDW_EWALD = F

  Number of pair interactions contributing to vdW energy:   35754
  Edisp (eV):   -0.32513
    FORVDW:  cpu time    0.0130: real time    0.0138

  FORCE on cell =-STRESS in cart. coord.  units (eV):
  Direction    XX          YY          ZZ          XY          YZ          ZX
  --------------------------------------------------------------------------------------
  Alpha Z     9.37521     9.37521     9.37521
  Ewald    4699.80884  4699.80884 -5507.12983     0.00000    -0.00000    -0.00000
  Hartree  4606.69770  4606.53354 -4571.08424     0.30372    -0.00000     0.00000
  E(xc)     -89.16091   -89.16066   -92.53276     0.00048    -0.00000    -0.00000
  Local   -9562.04242 -9561.54634  9769.01765    -0.67974     0.00000    -0.00000
  n-local   -20.38204   -20.36723   -21.52984    -0.11014    -0.00000    -0.00000
  augment    -2.34797    -2.34802    -2.12036    -0.00011     0.00000    -0.00000
  Kinetic   370.10522   370.86021   418.06574     0.56379     0.00000     0.00000
  Fock        0.00000     0.00000     0.00000     0.00000     0.00000     0.00000
  vdW        -0.01849    -0.01849    -0.00127    -0.00000    -0.00000    -0.00000
  -------------------------------------------------------------------------------------
  Total      12.03514    13.13704     2.06030     0.07798     0.00000    -0.00000
  in kB      61.12939    66.72619    10.46474     0.39609     0.00000    -0.00000
  external pressure =       46.11 kB  Pullay stress =        0.00 kB


 VOLUME and BASIS-vectors are now :
 -----------------------------------------------------------------------------
  energy-cutoff  :      400.00
  volume of cell :      315.44
      direct lattice vectors                 reciprocal lattice vectors
     4.267520463  0.000000000  0.000000000     0.234328109  0.135289397  0.000000000
    -2.133760231  3.695781132  0.000000000     0.000000000  0.270578794  0.000000000
     0.000000000  0.000000000 20.000000000     0.000000000  0.000000000  0.050000000

  length of vectors
     4.267520463  4.267520463 20.000000000     0.270578794  0.270578794  0.050000000


 FORCES acting on ions
    electron-ion (+dipol)            ewald-force                    non-local-force                 convergence-correction
 -----------------------------------------------------------------------------------------------
   0.151E+00 -.566E+00 0.455E-05   -.992E-09 0.000E+00 -.889E-20   0.437E-01 -.703E-01 0.123E-05   -.407E-01 0.145E+00 -.515E-05
   -.149E+00 0.566E+00 0.840E-05   0.983E-09 -.988E-11 -.296E-20   -.438E-01 0.702E-01 -.192E-05   0.388E-01 -.145E+00 -.589E-05
   -.154E+00 0.567E+00 0.867E-05   0.988E-09 -.132E-10 0.614E-20   -.438E-01 0.702E-01 -.199E-05   0.429E-01 -.146E+00 -.595E-05
   0.145E+00 -.569E+00 0.135E-04   -.101E-08 0.989E-11 0.656E-20   0.434E-01 -.702E-01 0.407E-06   -.360E-01 0.147E+00 -.119E-04
   0.154E+00 -.573E+00 -.336E-04   -.975E-09 -.983E-11 0.169E-20   0.440E-01 -.705E-01 0.514E-05   -.432E-01 0.151E+00 0.236E-04
   -.148E+00 0.575E+00 0.462E-05   0.101E-08 0.230E-10 -.254E-20   -.435E-01 0.707E-01 -.146E-05   0.381E-01 -.152E+00 -.319E-05
 -----------------------------------------------------------------------------------------------
   0.507E-05 -.131E-04 0.614E-05   -.189E-13 -.133E-13 0.000E+00   -.417E-06 0.268E-05 0.140E-05   -.335E-05 0.885E-05 -.851E-05
 
 
 POSITION                                       TOTAL-FORCE (eV/Angst)
 -----------------------------------------------------------------------------------
      0.00000      0.00000      0.00000         0.153837     -0.491343      0.000001
     -0.71125      1.23193      0.00000        -0.153876      0.490873      0.000001
      1.42251      0.00000      0.00000        -0.154544      0.490923      0.000001
      0.00000      2.46385      0.00000         0.152391     -0.491276      0.000002
      2.13376      1.23193      0.00000         0.155260     -0.492568     -0.000005
      1.42251      2.46385      0.00000        -0.153067      0.493391      0.000000
 -----------------------------------------------------------------------------------
    total drift:                                0.000001     -0.000002     -0.000001


--------------------------------------------------------------------------------------------------------



  FREE ENERGIE OF THE ION-ELECTRON SYSTEM (eV)
  ---------------------------------------------------
  free  energy   TOTEN  =       -48.21953030 eV

  energy  without entropy=      -48.21926070  energy(sigma->0) =      -48.21939550
 


--------------------------------------------------------------------------------------------------------


    POTLOK:  cpu time    0.8105: real time    0.8106


--------------------------------------------------------------------------------------------------------


     LOOP+:  cpu time  129.7806: real time  130.7089
    4ORBIT:  cpu time    0.0000: real time    0.0000

 Spin-Orbit-Coupling matrix elements

 Ion:    1  E_soc:     -0.0000132
 l=   1
     0.0000000    -0.0000025    -0.0000016
    -0.0000025     0.0000000    -0.0000025
    -0.0000016    -0.0000025     0.0000000
 l=   2
     0.0000000     0.0000000     0.0000000     0.0000000     0.0000000
     0.0000000     0.0000000     0.0000000     0.0000000     0.0000000
     0.0000000     0.0000000     0.0000000     0.0000000     0.0000000
     0.0000000     0.0000000     0.0000000     0.0000000     0.0000000
     0.0000000     0.0000000     0.0000000     0.0000000     0.0000000
 l=   3
     0.0000000     0.0000000     0.0000000     0.0000000     0.0000000     0.0000000     0.0000000
     0.0000000     0.0000000     0.0000000     0.0000000     0.0000000     0.0000000     0.0000000
     0.0000000     0.0000000     0.0000000     0.0000000     0.0000000     0.0000000     0.0000000
     0.0000000     0.0000000     0.0000000     0.0000000     0.0000000     0.0000000     0.0000000
     0.0000000     0.0000000     0.0000000     0.0000000     0.0000000     0.0000000     0.0000000
     0.0000000     0.0000000     0.0000000     0.0000000     0.0000000     0.0000000     0.0000000
     0.0000000     0.0000000     0.0000000     0.0000000     0.0000000     0.0000000     0.0000000

 Ion:    2  E_soc:     -0.0000132
 l=   1
     0.0000000    -0.0000025    -0.0000016
    -0.0000025     0.0000000    -0.0000025
    -0.0000016    -0.0000025     0.0000000
 l=   2
     0.0000000     0.0000000     0.0000000     0.0000000     0.0000000
     0.0000000     0.0000000     0.0000000     0.0000000     0.0000000
     0.0000000     0.0000000     0.0000000     0.0000000     0.0000000
     0.0000000     0.0000000     0.0000000     0.0000000     0.0000000
     0.0000000     0.0000000     0.0000000     0.0000000     0.0000000
 l=   3
     0.0000000     0.0000000     0.0000000     0.0000000     0.0000000     0.0000000     0.0000000
     0.0000000     0.0000000     0.0000000     0.0000000     0.0000000     0.0000000     0.0000000
     0.0000000     0.0000000     0.0000000     0.0000000     0.0000000     0.0000000     0.0000000
     0.0000000     0.0000000     0.0000000     0.0000000     0.0000000     0.0000000     0.0000000
     0.0000000     0.0000000     0.0000000     0.0000000     0.0000000     0.0000000     0.0000000
     0.0000000     0.0000000     0.0000000     0.0000000     0.0000000     0.0000000     0.0000000
     0.0000000     0.0000000     0.0000000     0.0000000     0.0000000     0.0000000     0.0000000

 Ion:    3  E_soc:     -0.0000132
 l=   1
     0.0000000    -0.0000025    -0.0000016
    -0.0000025     0.0000000    -0.0000025
    -0.0000016    -0.0000025     0.0000000
 l=   2
     0.0000000     0.0000000     0.0000000     0.0000000     0.0000000
     0.0000000     0.0000000     0.0000000     0.0000000     0.0000000
     0.0000000     0.0000000     0.0000000     0.0000000     0.0000000
     0.0000000     0.0000000     0.0000000     0.0000000     0.0000000
     0.0000000     0.0000000     0.0000000     0.0000000     0.0000000
 l=   3
     0.0000000     0.0000000     0.0000000     0.0000000     0.0000000     0.0000000     0.0000000
     0.0000000     0.0000000     0.0000000     0.0000000     0.0000000     0.0000000     0.0000000
     0.0000000     0.0000000     0.0000000     0.0000000     0.0000000     0.0000000     0.0000000
     0.0000000     0.0000000     0.0000000     0.0000000     0.0000000     0.0000000     0.0000000
     0.0000000     0.0000000     0.0000000     0.0000000     0.0000000     0.0000000     0.0000000
     0.0000000     0.0000000     0.0000000     0.0000000     0.0000000     0.0000000     0.0000000
     0.0000000     0.0000000     0.0000000     0.0000000     0.0000000     0.0000000     0.0000000

 Ion:    4  E_soc:     -0.0000132
 l=   1
     0.0000000    -0.0000025    -0.0000016
    -0.0000025     0.0000000    -0.0000025
    -0.0000016    -0.0000025     0.0000000
 l=   2
     0.0000000     0.0000000     0.0000000     0.0000000     0.0000000
     0.0000000     0.0000000     0.0000000     0.0000000     0.0000000
     0.0000000     0.0000000     0.0000000     0.0000000     0.0000000
     0.0000000     0.0000000     0.0000000     0.0000000     0.0000000
     0.0000000     0.0000000     0.0000000     0.0000000     0.0000000
 l=   3
     0.0000000     0.0000000     0.0000000     0.0000000     0.0000000     0.0000000     0.0000000
     0.0000000     0.0000000     0.0000000     0.0000000     0.0000000     0.0000000     0.0000000
     0.0000000     0.0000000     0.0000000     0.0000000     0.0000000     0.0000000     0.0000000
     0.0000000     0.0000000     0.0000000     0.0000000     0.0000000     0.0000000     0.0000000
     0.0000000     0.0000000     0.0000000     0.0000000     0.0000000     0.0000000     0.0000000
     0.0000000     0.0000000     0.0000000     0.0000000     0.0000000     0.0000000     0.0000000
     0.0000000     0.0000000     0.0000000     0.0000000     0.0000000     0.0000000     0.0000000

 Ion:    5  E_soc:     -0.0000132
 l=   1
     0.0000000    -0.0000025    -0.0000016
    -0.0000025     0.0000000    -0.0000025
    -0.0000016    -0.0000025     0.0000000
 l=   2
     0.0000000     0.0000000     0.0000000     0.0000000     0.0000000
     0.0000000     0.0000000     0.0000000     0.0000000     0.0000000
     0.0000000     0.0000000     0.0000000     0.0000000     0.0000000
     0.0000000     0.0000000     0.0000000     0.0000000     0.0000000
     0.0000000     0.0000000     0.0000000     0.0000000     0.0000000
 l=   3
     0.0000000     0.0000000     0.0000000     0.0000000     0.0000000     0.0000000     0.0000000
     0.0000000     0.0000000     0.0000000     0.0000000     0.0000000     0.0000000     0.0000000
     0.0000000     0.0000000     0.0000000     0.0000000     0.0000000     0.0000000     0.0000000
     0.0000000     0.0000000     0.0000000     0.0000000     0.0000000     0.0000000     0.0000000
     0.0000000     0.0000000     0.0000000     0.0000000     0.0000000     0.0000000     0.0000000
     0.0000000     0.0000000     0.0000000     0.0000000     0.0000000     0.0000000     0.0000000
     0.0000000     0.0000000     0.0000000     0.0000000     0.0000000     0.0000000     0.0000000

 Ion:    6  E_soc:     -0.0000132
 l=   1
     0.0000000    -0.0000025    -0.0000016
    -0.0000025     0.0000000    -0.0000025
    -0.0000016    -0.0000025     0.0000000
 l=   2
     0.0000000     0.0000000     0.0000000     0.0000000     0.0000000
     0.0000000     0.0000000     0.0000000     0.0000000     0.0000000
     0.0000000     0.0000000     0.0000000     0.0000000     0.0000000
     0.0000000     0.0000000     0.0000000     0.0000000     0.0000000
     0.0000000     0.0000000     0.0000000     0.0000000     0.0000000
 l=   3
     0.0000000     0.0000000     0.0000000     0.0000000     0.0000000     0.0000000     0.0000000
     0.0000000     0.0000000     0.0000000     0.0000000     0.0000000     0.0000000     0.0000000
     0.0000000     0.0000000     0.0000000     0.0000000     0.0000000     0.0000000     0.0000000
     0.0000000     0.0000000     0.0000000     0.0000000     0.0000000     0.0000000     0.0000000
     0.0000000     0.0000000     0.0000000     0.0000000     0.0000000     0.0000000     0.0000000
     0.0000000     0.0000000     0.0000000     0.0000000     0.0000000     0.0000000     0.0000000
     0.0000000     0.0000000     0.0000000     0.0000000     0.0000000     0.0000000     0.0000000
 


 total charge     
 
# of ion     s       p       d       tot
----------------------------------------
  1        0.883   1.795   0.000   2.677
  2        0.883   1.795   0.000   2.677
  3        0.883   1.795   0.000   2.677
  4        0.883   1.795   0.000   2.677
  5        0.883   1.795   0.000   2.677
  6        0.883   1.795   0.000   2.677
------------------------------------------------
tot        5.295  10.768   0.000  16.063
 


 magnetization (x)
 
# of ion     s       p       d       tot
----------------------------------------
  1       -0.000   0.000   0.000  -0.000
  2       -0.000  -0.000   0.000  -0.000
  3        0.000  -0.000   0.000   0.000
  4        0.000   0.000   0.000   0.000
  5        0.000  -0.000   0.000   0.000
  6       -0.000   0.000   0.000  -0.000
------------------------------------------------
tot       -0.000  -0.000   0.000  -0.000
 


 magnetization (y)
 
# of ion     s       p       d       tot
----------------------------------------
  1       -0.000   0.000   0.000   0.000
  2        0.000  -0.000   0.000  -0.000
  3        0.000  -0.000   0.000  -0.000
  4        0.000   0.000   0.000   0.000
  5       -0.000   0.000   0.000   0.000
  6       -0.000  -0.000   0.000  -0.000
------------------------------------------------
tot       -0.000   0.000   0.000  -0.000
 


 magnetization (z)
 
# of ion     s       p       d       tot
----------------------------------------
  1       -0.000  -0.002   0.000  -0.002
  2       -0.000   0.000   0.000   0.000
  3       -0.000   0.000   0.000   0.000
  4       -0.000  -0.001   0.000  -0.001
  5       -0.000  -0.001   0.000  -0.001
  6       -0.000   0.000   0.000   0.000
------------------------------------------------
tot       -0.000  -0.004   0.000  -0.004
 

 total amount of memory used by VASP on root node   197567. kBytes
========================================================================

   base      :      30000. kBytes
   nonl-proj :       6228. kBytes
   fftplans  :      22850. kBytes
   grid      :      19066. kBytes
   one-center:         12. kBytes
   wavefun   :     119411. kBytes
 
  
  
 General timing and accounting informations for this job:
 ========================================================
  
                  Total CPU time used (sec):      142.517
                            User time (sec):      140.783
                          System time (sec):        1.733
                         Elapsed time (sec):      144.254
  
                   Maximum memory used (kb):      272700.
                   Average memory used (kb):           0.
  
                          Minor page faults:        57172
                          Major page faults:            0
                 Voluntary context switches:         3216
