    2    2    1    1
  0.1997061E+02  0.3836885E-09  0.3836885E-09  0.3836885E-09  0.5000000E-15
  1.000000000000000E-004
  CAR 
 unknown system                          
      8    256      8
 
  0.0000000E+00  0.0000000E+00  0.0000000E+00  0.7513148E-03
    1       -7.814111   1.000000
    2        5.498941   1.000000
    3        5.498941   1.000000
    4        5.498941   1.000000
    5        8.823142   0.000000
    6        8.823142   0.000000
    7        8.823142   0.000000
    8        9.844986   0.000000
 
  0.9090909E-01  0.0000000E+00  0.0000000E+00  0.6010518E-02
    1       -7.693863   1.000000
    2        4.469184   1.000000
    3        5.325754   1.000000
    4        5.325754   1.000000
    5        8.863582   0.000000
    6        9.083240   0.000000
    7        9.083240   0.000000
    8       10.611224   0.000000
 
  0.1818182E+00  0.0000000E+00  0.0000000E+00  0.6010518E-02
    1       -7.337447   1.000000
    2        2.616789   1.000000
    3        4.959249   1.000000
    4        4.959249   1.000000
    5        8.550477   0.000000
    6        9.592568   0.000000
    7        9.592568   0.000000
    8       12.262269   0.000000
 
  0.2727273E+00  0.0000000E+00  0.0000000E+00  0.6010518E-02
    1       -6.762471   1.000000
    2        0.748550   1.000000
    3        4.599545   1.000000
    4        4.599545   1.000000
    5        8.183493   0.000000
    6        9.854135   0.000000
    7        9.854136   0.000000
    8       13.876398   0.000000
 
  0.3636364E+00  0.0000000E+00  0.0000000E+00  0.6010518E-02
    1       -6.024607   1.000000
    2       -0.897925   1.000000
    3        4.337095   1.000000
    4        4.337095   1.000000
    5        7.907557   0.000000
    6        9.776251   0.000000
    7        9.776251   0.000000
    8       14.339939   0.000000
 
  0.4545455E+00  0.0000000E+00  0.0000000E+00  0.6010518E-02
    1       -5.339796   1.000000
    2       -2.047417   1.000000
    3        4.201888   1.000000
    4        4.201888   1.000000
    5        7.764058   0.000000
    6        9.652989   0.000000
    7        9.652989   0.000000
    8       14.150428   0.000000
 
  0.9090909E-01  0.9090909E-01  0.0000000E+00  0.4507889E-02
    1       -7.653549   1.000000
    2        4.669219   1.000000
    3        4.983764   1.000000
    4        4.983764   1.000000
    5        8.463364   0.000000
    6        9.527712   0.000000
    7        9.527712   0.000000
    8       10.572485   0.000000
 
  0.1818182E+00  0.9090909E-01  0.0000000E+00  0.1803156E-01
    1       -7.374987   1.000000
    2        3.173760   1.000000
    3        4.549816   1.000000
    4        4.764613   1.000000
    5        8.480618   0.000000
    6        9.647473   0.000000
    7       10.170395   0.000000
    8       11.422560   0.000000
 
  0.2727273E+00  0.9090909E-01  0.0000000E+00  0.1803156E-01
    1       -6.870012   1.000000
    2        1.354545   1.000000
    3        4.191644   1.000000
    4        4.364084   1.000000
    5        8.615983   0.000000
    6        9.640750   0.000000
    7       10.547765   0.000000
    8       11.749633   0.000000
 
  0.3636364E+00  0.9090909E-01  0.0000000E+00  0.1803156E-01
    1       -6.175538   1.000000
    2       -0.349832   1.000000
    3        3.941422   1.000000
    4        3.977202   1.000000
    5        8.476506   0.000000
    6        9.631456   0.000000
    7       10.460555   0.000000
    8       12.590046   0.000000
 
  0.4545455E+00  0.9090909E-01  0.0000000E+00  0.1803156E-01
    1       -5.424978   1.000000
    2       -1.700060   1.000000
    3        3.607426   1.000000
    4        3.926096   1.000000
    5        8.342513   0.000000
    6        9.555340   0.000000
    7       10.197195   0.000000
    8       13.919952   0.000000
 
 -0.4545455E+00  0.9090909E-01  0.0000000E+00  0.1803156E-01
    1       -5.121382   1.000000
    2       -2.154812   1.000000
    3        3.408181   1.000000
    4        4.035103   1.000000
    5        8.326487   0.000000
    6        9.598578   0.000000
    7        9.998947   0.000000
    8       14.562510   0.000000
 
 -0.3636364E+00  0.9090909E-01  0.0000000E+00  0.1803156E-01
    1       -5.664635   1.000000
    2       -1.306745   1.000000
    3        3.368907   1.000000
    4        4.286477   1.000000
    5        8.443261   0.000000
    6        9.798539   0.000000
    7        9.926315   0.000000
    8       14.328281   0.000000
 
 -0.2727273E+00  0.9090909E-01  0.0000000E+00  0.1803156E-01
    1       -6.425228   1.000000
    2        0.196108   1.000000
    3        3.506745   1.000000
    4        4.646259   1.000000
    5        8.680426   0.000000
    6        9.876327   0.000000
    7       10.036099   0.000000
    8       13.262230   0.000000
 
 -0.1818182E+00  0.9090909E-01  0.0000000E+00  0.1803156E-01
    1       -7.063258   1.000000
    2        1.945683   1.000000
    3        3.839316   1.000000
    4        5.047060   1.000000
    5        9.001032   0.000000
    6        9.588171   0.000000
    7        9.920486   0.000000
    8       12.353973   0.000000
 
 -0.9090909E-01  0.9090909E-01  0.0000000E+00  0.9015778E-02
    1       -7.494547   1.000000
    2        3.588179   1.000000
    3        4.458670   1.000000
    4        5.344440   1.000000
    5        9.151653   0.000000
    6        9.256408   0.000000
    7        9.292453   0.000000
    8       11.502426   0.000000
 
  0.1818182E+00  0.1818182E+00  0.0000000E+00  0.4507889E-02
    1       -7.174376   1.000000
    2        3.026828   1.000000
    3        4.070383   1.000000
    4        4.070383   1.000000
    5        7.744602   0.000000
    6       10.495353   0.000000
    7       10.996800   0.000000
    8       10.996800   0.000000
 
  0.2727273E+00  0.1818182E+00  0.0000000E+00  0.1803156E-01
    1       -6.743001   1.000000
    2        1.718504   1.000000
    3        3.627382   1.000000
    4        3.684231   1.000000
    5        7.785716   0.000000
    6       10.019415   0.000000
    7       11.294835   0.000000
    8       11.630696   0.000000
 
  0.3636364E+00  0.1818182E+00  0.0000000E+00  0.1803156E-01
    1       -6.105257   1.000000
    2        0.165707   1.000000
    3        3.051120   1.000000
    4        3.459678   1.000000
    5        8.040030   0.000000
    6       10.400064   0.000000
    7       11.080295   0.000000
    8       11.698657   0.000000
 
  0.4545455E+00  0.1818182E+00  0.0000000E+00  0.1803156E-01
    1       -5.343230   1.000000
    2       -1.235542   1.000000
    3        2.520586   1.000000
    4        3.419357   1.000000
    5        8.092043   0.000000
    6       10.818606   0.000000
    7       11.410705   0.000000
    8       11.725943   0.000000
 
 -0.4545455E+00  0.1818182E+00  0.0000000E+00  0.1803156E-01
    1       -4.799887   1.000000
    2       -2.039927   1.000000
    3        2.143083   1.000000
    4        3.562725   1.000000
    5        8.210814   0.000000
    6       10.674146   0.000000
    7       11.096630   0.000000
    8       13.472147   0.000000
 
 -0.3636364E+00  0.1818182E+00  0.0000000E+00  0.1803156E-01
    1       -5.120922   1.000000
    2       -1.573916   1.000000
    3        1.969950   1.000000
    4        3.871043   1.000000
    5        8.498118   0.000000
    6       10.647211   0.000000
    7       10.869729   0.000000
    8       14.361036   0.000000
 
 -0.2727273E+00  0.1818182E+00  0.0000000E+00  0.1803156E-01
    1       -5.874581   1.000000
    2       -0.309452   1.000000
    3        2.061105   1.000000
    4        4.300192   1.000000
    5        8.918400   0.000000
    6       10.640177   0.000000
    7       10.676124   0.000000
    8       12.891097   0.000000
 
 -0.1818182E+00  0.1818182E+00  0.0000000E+00  0.9015778E-02
    1       -6.563927   1.000000
    2        1.036721   1.000000
    3        2.602571   1.000000
    4        4.755320   1.000000
    5        9.310714   0.000000
    6       10.125293   0.000000
    7       10.325146   0.000000
    8       12.157085   0.000000
 
  0.2727273E+00  0.2727273E+00  0.0000000E+00  0.4507889E-02
    1       -6.384812   1.000000
    2        1.204573   1.000000
    3        3.259454   1.000000
    4        3.259454   1.000000
    5        7.095632   0.000000
    6        9.021307   0.000000
    7       12.704386   0.000000
    8       12.704387   0.000000
 
  0.3636364E+00  0.2727273E+00  0.0000000E+00  0.1803156E-01
    1       -5.811020   1.000000
    2        0.122570   1.000000
    3        2.680115   1.000000
    4        2.996771   1.000000
    5        7.228267   0.000000
    6        8.704572   0.000000
    7       13.021653   0.000000
    8       13.193641   0.000000
 
  0.4545455E+00  0.2727273E+00  0.0000000E+00  0.1803156E-01
    1       -5.071898   1.000000
    2       -1.043174   1.000000
    3        1.884542   1.000000
    4        2.925422   1.000000
    5        7.446415   0.000000
    6        9.513535   0.000000
    7       12.852306   0.000000
    8       13.023569   0.000000
 
 -0.4545455E+00  0.2727273E+00  0.0000000E+00  0.1803156E-01
    1       -4.380419   1.000000
    2       -1.951504   1.000000
    3        1.244817   1.000000
    4        3.049971   1.000000
    5        7.596652   0.000000
    6       11.089309   0.000000
    7       12.668108   0.000000
    8       12.689453   0.000000
 
 -0.3636364E+00  0.2727273E+00  0.0000000E+00  0.1803156E-01
    1       -4.442518   1.000000
    2       -1.862289   1.000000
    3        0.923504   1.000000
    4        3.356400   1.000000
    5        7.916698   0.000000
    6       12.216944   0.000000
    7       12.315751   0.000000
    8       13.341080   0.000000
 
 -0.2727273E+00  0.2727273E+00  0.0000000E+00  0.9015778E-02
    1       -5.156226   1.000000
    2       -1.003375   1.000000
    3        1.105336   1.000000
    4        3.804479   1.000000
    5        8.411218   0.000000
    6       11.710421   0.000000
    7       11.929335   0.000000
    8       13.010039   0.000000
 
  0.3636364E+00  0.3636364E+00  0.0000000E+00  0.4507889E-02
    1       -5.300563   1.000000
    2       -0.625588   1.000000
    3        2.686357   1.000000
    4        2.686357   1.000000
    5        6.705213   0.000000
    6        7.794250   0.000000
    7       14.503308   0.000000
    8       14.503312   0.000000
 
  0.4545455E+00  0.3636364E+00  0.0000000E+00  0.1803156E-01
    1       -4.603202   1.000000
    2       -1.546640   1.000000
    3        2.110857   1.000000
    4        2.566692   1.000000
    5        6.924417   0.000000
    6        7.805271   0.000000
    7       14.832080   0.000000
    8       14.856913   0.000000
 
 -0.4545455E+00  0.3636364E+00  0.0000000E+00  0.1803156E-01
    1       -3.844169   1.000000
    2       -2.355908   1.000000
    3        1.255869   1.000000
    4        2.648026   1.000000
    5        7.110846   0.000000
    6        9.082686   0.000000
    7       14.522879   0.000000
    8       14.703567   0.000000
 
 -0.3636364E+00  0.3636364E+00  0.0000000E+00  0.9015778E-02
    1       -3.768561   1.000000
    2       -2.393684   1.000000
    3        0.713760   1.000000
    4        2.921990   1.000000
    5        7.414542   0.000000
    6       10.934492   0.000000
    7       13.843447   0.000000
    8       14.368341   0.000000
 
  0.4545455E+00  0.4545455E+00  0.0000000E+00  0.4507889E-02
    1       -3.948142   1.000000
    2       -2.369440   1.000000
    3        2.392998   1.000000
    4        2.392998   1.000000
    5        6.658360   0.000000
    6        7.008174   0.000000
    7       16.340900   0.000000
    8       16.340910   0.000000
 
 -0.4545455E+00  0.4545455E+00  0.0000000E+00  0.9015778E-02
    1       -3.220864   1.000000
    2       -3.095684   1.000000
    3        1.923777   1.000000
    4        2.421036   1.000000
    5        6.853149   0.000000
    6        7.470213   0.000000
    7       16.300215   0.000000
    8       16.605056   0.000000
 
  0.2727273E+00  0.1818182E+00  0.9090909E-01  0.1803156E-01
    1       -7.020562   1.000000
    2        2.213157   1.000000
    3        3.534216   1.000000
    4        4.623183   1.000000
    5        8.535552   0.000000
    6       10.015025   0.000000
    7       10.759873   0.000000
    8       11.133154   0.000000
 
  0.3636364E+00  0.1818182E+00  0.9090909E-01  0.3606311E-01
    1       -6.448251   1.000000
    2        0.725529   1.000000
    3        2.913218   1.000000
    4        4.270514   1.000000
    5        8.875487   0.000000
    6        9.930088   0.000000
    7       11.087761   0.000000
    8       11.273061   0.000000
 
  0.4545455E+00  0.1818182E+00  0.9090909E-01  0.3606311E-01
    1       -5.711557   1.000000
    2       -0.793865   1.000000
    3        2.628413   1.000000
    4        3.886475   1.000000
    5        8.934203   0.000000
    6        9.638967   0.000000
    7       11.223636   0.000000
    8       12.180610   0.000000
 
 -0.4545455E+00  0.1818182E+00  0.9090909E-01  0.3606311E-01
    1       -5.021071   1.000000
    2       -1.905249   1.000000
    3        2.518963   1.000000
    4        3.648864   1.000000
    5        8.932177   0.000000
    6        9.380282   0.000000
    7       11.140616   0.000000
    8       13.774801   0.000000
 
  0.3636364E+00  0.2727273E+00  0.9090909E-01  0.1803156E-01
    1       -6.241601   1.000000
    2        0.765447   1.000000
    3        2.730073   1.000000
    4        3.511114   1.000000
    5        7.914674   0.000000
    6        9.565323   0.000000
    7       11.431693   0.000000
    8       12.568610   0.000000
 
  0.4545455E+00  0.2727273E+00  0.9090909E-01  0.3606311E-01
    1       -5.550400   1.000000
    2       -0.456707   1.000000
    3        2.097086   1.000000
    4        3.163176   1.000000
    5        8.305072   0.000000
    6        9.992320   0.000000
    7       11.099478   0.000000
    8       12.980695   0.000000
 
 -0.4545455E+00  0.2727273E+00  0.9090909E-01  0.3606311E-01
    1       -4.794433   1.000000
    2       -1.599772   1.000000
    3        1.669713   1.000000
    4        2.988356   1.000000
    5        8.450795   0.000000
    6       10.597728   0.000000
    7       11.536232   0.000000
    8       12.931620   0.000000
 
 -0.3636364E+00  0.2727273E+00  0.9090909E-01  0.3606311E-01
    1       -4.493338   1.000000
    2       -1.996045   1.000000
    3        1.411356   1.000000
    4        3.088433   1.000000
    5        8.685162   0.000000
    6       10.332933   0.000000
    7       12.776075   0.000000
    8       13.329656   0.000000
 
 -0.2727273E+00  0.2727273E+00  0.9090909E-01  0.3606311E-01
    1       -5.063437   1.000000
    2       -1.214989   1.000000
    3        1.398201   1.000000
    4        3.418070   1.000000
    5        9.086680   0.000000
    6       10.129029   0.000000
    7       12.017843   0.000000
    8       12.689313   0.000000
 
 -0.1818182E+00  0.2727273E+00  0.9090909E-01  0.1803156E-01
    1       -5.821192   1.000000
    2       -0.104784   1.000000
    3        1.821996   1.000000
    4        3.877316   1.000000
    5        9.588246   0.000000
    6        9.683908   0.000000
    7       11.022865   0.000000
    8       12.227389   0.000000
 
  0.4545455E+00  0.3636364E+00  0.9090909E-01  0.1803156E-01
    1       -5.177635   1.000000
    2       -0.780816   1.000000
    3        2.191067   1.000000
    4        2.614859   1.000000
    5        7.522058   0.000000
    6        8.437186   0.000000
    7       12.924493   0.000000
    8       14.461512   0.000000
 
 -0.4545455E+00  0.3636364E+00  0.9090909E-01  0.3606311E-01
    1       -4.413052   1.000000
    2       -1.710377   1.000000
    3        1.482516   1.000000
    4        2.419933   1.000000
    5        7.894387   0.000000
    6        9.315411   0.000000
    7       12.537782   0.000000
    8       14.851978   0.000000
 
 -0.3636364E+00  0.3636364E+00  0.9090909E-01  0.3606311E-01
    1       -3.882974   1.000000
    2       -2.275046   1.000000
    3        0.899199   1.000000
    4        2.551060   1.000000
    5        8.127924   0.000000
    6       10.988867   0.000000
    7       12.231963   0.000000
    8       13.938445   0.000000
 
 -0.2727273E+00  0.3636364E+00  0.9090909E-01  0.1803156E-01
    1       -4.317594   1.000000
    2       -1.822939   1.000000
    3        0.782608   1.000000
    4        2.912242   1.000000
    5        8.534780   0.000000
    6       11.476234   0.000000
    7       12.295275   0.000000
    8       13.247552   0.000000
 
 -0.4545455E+00  0.4545455E+00  0.9090909E-01  0.1803156E-01
    1       -3.864674   1.000000
    2       -2.365396   1.000000
    3        1.970415   1.000000
    4        2.101402   1.000000
    5        7.444115   0.000000
    6        7.734768   0.000000
    7       14.567870   0.000000
    8       16.205470   0.000000
 
 -0.3636364E+00  0.4545455E+00  0.9090909E-01  0.1803156E-01
    1       -3.293648   1.000000
    2       -2.869735   1.000000
    3        1.245310   1.000000
    4        2.185370   1.000000
    5        7.748625   0.000000
    6        9.094688   0.000000
    7       14.080504   0.000000
    8       14.311810   0.000000
 
 -0.4545455E+00  0.3636364E+00  0.1818182E+00  0.1803156E-01
    1       -4.827963   1.000000
    2       -1.227075   1.000000
    3        1.358209   1.000000
    4        2.656013   1.000000
    5        9.321840   0.000000
    6        9.950081   0.000000
    7       10.726204   0.000000
    8       14.324575   0.000000
 
 -0.3636364E+00  0.3636364E+00  0.1818182E+00  0.3606311E-01
    1       -4.113259   1.000000
    2       -2.019145   1.000000
    3        1.043375   1.000000
    4        2.300971   1.000000
    5        9.682703   0.000000
    6       10.131895   0.000000
    7       11.517610   0.000000
    8       13.532216   0.000000
 
 -0.3636364E+00  0.4545455E+00  0.1818182E+00  0.1803156E-01
    1       -3.653246   1.000000
    2       -2.412802   1.000000
    3        1.297994   1.000000
    4        1.722624   1.000000
    5        9.220857   0.000000
    6        9.431491   0.000000
    7       12.095027   0.000000
    8       13.794879   0.000000
 
 -0.2727273E+00  0.4545455E+00  0.1818182E+00  0.1803156E-01
    1       -3.426652   1.000000
    2       -2.598959   1.000000
    3        0.985185   1.000000
    4        1.765258   1.000000
    5        9.584829   0.000000
    6       10.921746   0.000000
    7       11.846409   0.000000
    8       11.908431   0.000000
 
  0.0000000E+00  0.0000000E+00  0.0000000E+00  0.0000000E+00
    1       -7.806078   1.000000
    2        5.617842   1.000000
    3        5.825212   0.000000
    4        5.599852   0.000000
    5        8.694999   0.000000
    6        8.836775   0.000000
    7       10.114130   0.000000
    8       12.525359   0.000000
 
  0.2631579E-01  0.0000000E+00  0.2631579E-01  0.0000000E+00
    1       -7.792703   1.000000
    2        5.608252   1.000000
    3        5.556841   0.000000
    4        5.760551   0.000000
    5        8.735170   0.000000
    6        8.868461   0.000000
    7       10.336294   0.000000
    8       14.144428   0.000000
 
  0.5263158E-01  0.0000000E+00  0.5263158E-01  0.0000000E+00
    1       -7.752422   1.000000
    2        5.485590   1.000000
    3        5.392973   0.000000
    4        5.609901   0.000000
    5        8.926537   0.000000
    6        9.024840   0.000000
    7       10.458753   0.000000
    8       14.727724   0.000000
 
  0.7894737E-01  0.0000000E+00  0.7894737E-01  0.0000000E+00
    1       -7.685244   1.000000
    2        5.262125   1.000000
    3        5.125508   0.550171
    4        5.423152   0.000000
    5        9.204826   0.000000
    6        9.225513   0.000000
    7       10.823582   0.000000
    8       13.547193   0.000000
 
  0.1052632E+00  0.0000000E+00  0.1052632E+00  0.0000000E+00
    1       -7.591339   1.000000
    2        4.838100   1.000000
    3        4.987218   1.000000
    4        5.182428   0.000000
    5        9.516652   0.000000
    6        9.455957   0.000000
    7       11.368802   0.000000
    8       11.032685   0.000000
 
  0.1315790E+00  0.0000000E+00  0.1315790E+00  0.0000000E+00
    1       -7.470598   1.000000
    2        4.336229   1.000000
    3        4.874091   0.000001
    4        4.916283   0.000000
    5        9.810684   0.000000
    6        9.703250   0.000000
    7       11.951327   0.000000
    8       10.088040   0.000000
 
  0.1578947E+00  0.0000000E+00  0.1578947E+00  0.0000000E+00
    1       -7.323253   1.000000
    2        3.863206   1.000000
    3        4.551582   1.000000
    4        4.638702   0.999997
    5       10.043705   0.000000
    6       10.136386   0.000000
    7       12.686746   0.000000
    8        9.623678   0.000000
 
  0.1842105E+00  0.0000000E+00  0.1842105E+00  0.0000000E+00
    1       -7.149526   1.000000
    2        3.359545   1.000000
    3        4.365992   1.000000
    4        4.246468   1.000000
    5       10.181227   0.000000
    6       10.563517   0.000000
    7       13.262311   0.000000
    8        9.446432   0.000000
 
  0.2105263E+00  0.0000000E+00  0.2105263E+00  0.0000000E+00
    1       -6.949671   1.000000
    2        2.827831   1.000000
    3        4.105400   1.000000
    4        3.968196   1.000000
    5       10.197597   0.000000
    6       10.908714   0.000000
    7       13.890161   0.000000
    8        9.511136   0.000000
 
  0.2368421E+00  0.0000000E+00  0.2368421E+00  0.0000000E+00
    1       -6.723932   1.000000
    2        2.280328   1.000000
    3        3.862836   1.000000
    4        3.719451   1.000000
    5       10.088660   0.000000
    6       11.046953   0.000000
    7       14.502001   0.000000
    8        9.785815   0.000000
 
  0.2631579E+00  0.0000000E+00  0.2631579E+00  0.0000000E+00
    1       -6.473264   1.000000
    2        1.725825   1.000000
    3        3.616889   1.000000
    4        3.503592   1.000000
    5       10.087538   0.000000
    6       11.294769   0.000000
    7       15.326267   0.000000
    8       10.053422   0.000000
 
  0.2894737E+00  0.0000000E+00  0.2894737E+00  0.0000000E+00
    1       -6.197267   1.000000
    2        1.172826   1.000000
    3        3.411414   1.000000
    4        3.305131   1.000000
    5        9.831600   0.000000
    6       11.289798   0.000000
    7       16.200607   0.000000
    8       10.600887   0.000000
 
  0.3157895E+00  0.0000000E+00  0.3157895E+00  0.0000000E+00
    1       -5.896714   1.000000
    2        0.612829   1.000000
    3        3.230347   1.000000
    4        3.140574   1.000000
    5        9.506033   0.000000
    6       11.122427   0.000000
    7       16.805217   0.000000
    8       11.268196   0.000000
 
  0.3421053E+00  0.0000000E+00  0.3421053E+00  0.0000000E+00
    1       -5.571809   1.000000
    2        0.070759   1.000000
    3        3.041256   1.000000
    4        2.995523   1.000000
    5        9.711062   0.000000
    6       11.012499   0.000000
    7       17.637976   0.000000
    8       11.496695   0.000000
 
  0.3684211E+00  0.0000000E+00  0.3684211E+00  0.0000000E+00
    1       -5.224033   1.000000
    2       -0.473553   1.000000
    3        2.900832   1.000000
    4        2.878573   1.000000
    5        9.495679   0.000000
    6       10.706130   0.000000
    7       18.298863   0.000000
    8       12.158916   0.000000
 
  0.3947368E+00  0.0000000E+00  0.3947368E+00  0.0000000E+00
    1       -4.854007   1.000000
    2       -1.009229   1.000000
    3        2.796595   1.000000
    4        2.781015   1.000000
    5        9.363327   0.000000
    6        9.971733   0.000000
    7       18.678665   0.000000
    8       12.787257   0.000000
 
  0.4210526E+00  0.0000000E+00  0.4210526E+00  0.0000000E+00
    1       -4.462225   1.000000
    2       -1.532938   1.000000
    3        2.703136   1.000000
    4        2.708170   1.000000
    5        9.197341   0.000000
    6        9.147242   0.000000
    7       19.172722   0.000000
    8       13.498904   0.000000
 
  0.4473684E+00  0.0000000E+00  0.4473684E+00  0.0000000E+00
    1       -4.050076   1.000000
    2       -2.041781   1.000000
    3        2.634259   1.000000
    4        2.660187   1.000000
    5        9.053973   0.000000
    6        8.670553   0.000000
    7       19.888601   0.000000
    8       14.197358   0.000000
 
  0.4736842E+00  0.0000000E+00  0.4736842E+00  0.0000000E+00
    1       -3.618503   1.000000
    2       -2.536358   1.000000
    3        2.589924   1.000000
    4        2.635719   1.000000
    5        8.969158   0.000000
    6        8.314331   0.000000
    7       20.374524   0.000000
    8       14.902468   0.000000
 
  0.5000000E+00  0.0000000E+00  0.5000000E+00  0.0000000E+00
    1       -3.168914   1.000000
    2       -3.013784   1.000000
    3        2.571069   1.000000
    4        2.636453   1.000000
    5        8.927158   0.000000
    6        8.034120   0.000000
    7       20.706442   0.000000
    8       15.583082   0.000000
 
  0.5000000E+00  0.0000000E+00  0.5000000E+00  0.0000000E+00
    1       -3.168914   1.000000
    2       -3.013784   1.000000
    3        2.571069   1.000000
    4        2.636453   1.000000
    5        8.927158   0.000000
    6        8.034120   0.000000
    7       20.706442   0.000000
    8       15.583082   0.000000
 
  0.5000000E+00  0.1315789E-01  0.5131579E+00  0.0000000E+00
    1       -3.166741   1.000000
    2       -3.018061   1.000000
    3        2.519944   1.000000
    4        2.618216   1.000000
    5        9.083589   0.000000
    6        8.182696   0.000000
    7       20.346295   0.000000
    8       15.478281   0.000000
 
  0.5000000E+00  0.2631579E-01  0.5263158E+00  0.0000000E+00
    1       -3.161945   1.000000
    2       -3.019526   1.000000
    3        2.455437   1.000000
    4        2.584803   1.000000
    5        9.277754   0.000000
    6        8.379626   0.000000
    7       19.947472   0.000000
    8       15.360031   0.000000
 
  0.5000000E+00  0.3947368E-01  0.5394737E+00  0.0000000E+00
    1       -3.154468   1.000000
    2       -3.018307   1.000000
    3        2.379912   1.000000
    4        2.540532   1.000000
    5        9.524099   0.000000
    6        9.007868   0.000000
    7       19.502102   0.000000
    8       15.235823   0.000000
 
  0.5000000E+00  0.5263158E-01  0.5526316E+00  0.0000000E+00
    1       -3.144617   1.000000
    2       -3.014740   1.000000
    3        2.294938   1.000000
    4        2.486141   1.000000
    5        9.791641   0.000000
    6        9.329785   0.000000
    7       18.837204   0.000000
    8       15.094187   0.000000
 
  0.5000000E+00  0.6578947E-01  0.5657895E+00  0.0000000E+00
    1       -3.132403   1.000000
    2       -3.008963   1.000000
    3        2.203100   1.000000
    4        2.425723   1.000000
    5       10.092479   0.000000
    6       10.196875   0.000000
    7       18.442116   0.000000
    8       14.943398   0.000000
 
  0.5000000E+00  0.7894737E-01  0.5789474E+00  0.0000000E+00
    1       -3.117993   1.000000
    2       -3.001364   1.000000
    3        2.106599   1.000000
    4        2.360902   1.000000
    5       10.427398   0.000000
    6       10.708067   0.000000
    7       17.923291   0.000000
    8       14.786968   0.000000
 
  0.5000000E+00  0.9210526E-01  0.5921053E+00  0.0000000E+00
    1       -3.101583   1.000000
    2       -2.992257   1.000000
    3        2.007526   1.000000
    4        2.295718   1.000000
    5       10.794200   0.000000
    6       11.652662   0.000000
    7       17.107272   0.000000
    8       14.626823   0.000000
 
  0.5000000E+00  0.1052632E+00  0.6052632E+00  0.0000000E+00
    1       -3.083416   1.000000
    2       -2.981990   1.000000
    3        1.907825   1.000000
    4        2.231218   1.000000
    5       11.187486   0.000000
    6       12.502492   0.000000
    7       16.433382   0.000000
    8       14.465422   0.000000
 
  0.5000000E+00  0.1184210E+00  0.6184211E+00  0.0000000E+00
    1       -3.063768   1.000000
    2       -2.970890   1.000000
    3        1.809307   1.000000
    4        2.159154   1.000000
    5       11.601928   0.000000
    6       12.700946   0.000000
    7       15.620541   0.000000
    8       14.306861   0.000000
 
  0.5000000E+00  0.1315790E+00  0.6315789E+00  0.0000000E+00
    1       -3.042964   1.000000
    2       -2.959571   1.000000
    3        1.713614   1.000000
    4        2.103155   1.000000
    5       12.030638   0.000000
    6       13.696423   0.000000
    7       14.816830   0.000000
    8       14.158361   0.000000
 
  0.5000000E+00  0.1447368E+00  0.6447368E+00  0.0000000E+00
    1       -3.021357   1.000000
    2       -2.948335   1.000000
    3        1.622244   1.000000
    4        2.053284   1.000000
    5       12.464586   0.000000
    6       13.954614   0.000000
    7       14.792492   0.000000
    8       14.029914   0.000000
 
  0.5000000E+00  0.1578947E+00  0.6578947E+00  0.0000000E+00
    1       -3.000010   1.000000
    2       -2.937670   1.000000
    3        1.532812   1.000000
    4        2.004327   1.000000
    5       12.686871   0.000000
    6       13.703955   0.000000
    7       14.561804   0.000000
    8       13.992274   0.000000
 
  0.5000000E+00  0.1710526E+00  0.6710526E+00  0.0000000E+00
    1       -2.978055   1.000000
    2       -2.927973   1.000000
    3        1.454915   1.000000
    4        1.970161   1.000000
    5       13.114232   0.000000
    6       13.374696   0.000000
    7       15.196214   0.000000
    8       13.911128   0.000000
 
  0.5000000E+00  0.1842105E+00  0.6842105E+00  0.0000000E+00
    1       -2.956536   1.000000
    2       -2.919653   1.000000
    3        1.384836   1.000000
    4        1.944519   1.000000
    5       13.512298   0.000000
    6       12.972644   0.000000
    7       15.877796   0.000000
    8       13.890526   0.000000
 