 vasp.5.4.1 05Feb16 (build Oct 07 2016 17:26:14) complex                        
  
 executed on        GRP7IFC17AVX2 date 2017.09.25  21:35:08
 running on  160 total cores
 distrk:  each k-point on   40 cores,    4 groups
 distr:  one band on NCORES_PER_BAND=  10 cores,    4 groups


--------------------------------------------------------------------------------------------------------


 INCAR:
 POTCAR:    PAW_PBE Si 05Jan2001                  

 ----------------------------------------------------------------------------- 
|                                                                             |
|           W    W    AA    RRRRR   N    N  II  N    N   GGGG   !!!           |
|           W    W   A  A   R    R  NN   N  II  NN   N  G    G  !!!           |
|           W    W  A    A  R    R  N N  N  II  N N  N  G       !!!           |
|           W WW W  AAAAAA  RRRRR   N  N N  II  N  N N  G  GGG   !            |
|           WW  WW  A    A  R   R   N   NN  II  N   NN  G    G                |
|           W    W  A    A  R    R  N    N  II  N    N   GGGG   !!!           |
|                                                                             |
|      You have enabled k-point parallelism (KPAR>1).                         |
|      This developmental code was originally  written by Paul Kent at ORNL,  |
|      and carefully double checked in Vienna.                                |
|      GW as well as linear response parallelism added by Martijn Marsman     |
|      and Georg Kresse.                                                      |
|      Carefully verify results versus KPAR=1.                                |
|      Report problems to Paul Kent and Vienna.                               |
|                                                                             |
 ----------------------------------------------------------------------------- 

 POTCAR:    PAW_PBE Si 05Jan2001                  
   VRHFIN =Si: s2p2                                                             
   LEXCH  = PE                                                                  
   EATOM  =   103.0669 eV,    7.5752 Ry                                         
                                                                                
   TITEL  = PAW_PBE Si 05Jan2001                                                
   LULTRA =        F    use ultrasoft PP ?                                      
   IUNSCR =        1    unscreen: 0-lin 1-nonlin 2-no                           
   RPACOR =    1.500    partial core radius                                     
   POMASS =   28.085; ZVAL   =    4.000    mass and valenz                      
   RCORE  =    1.900    outmost cutoff radius                                   
   RWIGS  =    2.480; RWIGS  =    1.312    wigner-seitz radius (au A)           
   ENMAX  =  245.345; ENMIN  =  184.009 eV                                      
   ICORE  =        2    local potential                                         
   LCOR   =        T    correct aug charges                                     
   LPAW   =        T    paw PP                                                  
   EAUG   =  322.069                                                            
   DEXC   =    0.000                                                            
   RMAX   =    1.950    core radius for proj-oper                               
   RAUG   =    1.300    factor for augmentation sphere                          
   RDEP   =    1.993    radius for radial grids                                 
   RDEPT  =    1.837    core radius for aug-charge                              
                                                                                
   Atomic configuration                                                         
    6 entries                                                                   
     n  l   j            E        occ.                                          
     1  0  0.50     -1785.8828   2.0000                                         
     2  0  0.50      -139.4969   2.0000                                         
     2  1  1.50       -95.5546   6.0000                                         
     3  0  0.50       -10.8127   2.0000                                         
     3  1  0.50        -4.0811   2.0000                                         
     3  2  1.50        -4.0817   0.0000                                         
   Description                                                                  
     l       E           TYP  RCUT    TYP  RCUT                                 
     0    -10.8127223     23  1.900                                             
     0     -7.6451159     23  1.900                                             
     1     -4.0811372     23  1.900                                             
     1      2.4879257     23  1.900                                             
     2     -4.0817478      7  1.900                                             
  local pseudopotential read in
  partial core-charges read in
  partial kinetic energy density read in
  atomic valenz-charges read in
  non local Contribution for L=           0  read in
    real space projection operators read in
  non local Contribution for L=           0  read in
    real space projection operators read in
  non local Contribution for L=           1  read in
    real space projection operators read in
  non local Contribution for L=           1  read in
    real space projection operators read in
    PAW grid and wavefunctions read in
 
   number of l-projection  operators is LMAX  =           4
   number of lm-projection operators is LMMAX =           8
 
  PAW_PBE Si 05Jan2001                  :
 energy of atom  1       EATOM= -103.0669
 kinetic energy error for atom=    0.0006 (will be added to EATOM!!)
 
 
 POSCAR: Si                                      
  positions in direct lattice
  velocities in cartesian coordinates
 exchange correlation table for  LEXCH =        8
   RHO(1)=    0.500       N(1)  =     2000
   RHO(2)=  100.500       N(2)  =     4000
 


--------------------------------------------------------------------------------------------------------


 ion  position               nearest neighbor table
   1  0.000  0.000  0.000-   2 2.35   2 2.35   2 2.35   2 2.35
   2  0.250  0.250  0.250-   1 2.35   1 2.35   1 2.35   1 2.35
 
  LATTYP: Found a face centered cubic cell.
 ALAT       =     5.4261744912
  
  Lattice vectors:
  
 A1 = (   2.7130872456,   2.7130872456,   0.0000000000)
 A2 = (   0.0000000000,   2.7130872456,   2.7130872456)
 A3 = (   2.7130872456,   0.0000000000,   2.7130872456)


Analysis of symmetry for initial positions (statically):
=====================================================================
 Subroutine PRICEL returns:
 Original cell was already a primitive cell.
 

 Routine SETGRP: Setting up the symmetry group for a 
 face centered cubic supercell.


 Subroutine GETGRP returns: Found 48 space group operations
 (whereof 24 operations were pure point group operations)
 out of a pool of 48 trial point group operations.


The static configuration has the point symmetry T_d .
 The point group associated with its full space group is O_h .


Analysis of symmetry for dynamics (positions and initial velocities):
=====================================================================
 Subroutine PRICEL returns:
 Original cell was already a primitive cell.
 

 Routine SETGRP: Setting up the symmetry group for a 
 face centered cubic supercell.


 Subroutine GETGRP returns: Found 48 space group operations
 (whereof 24 operations were pure point group operations)
 out of a pool of 48 trial point group operations.


The dynamic configuration has the point symmetry T_d .
 The point group associated with its full space group is O_h .


 Subroutine INISYM returns: Found 48 space group operations
 (whereof 24 operations are pure point group operations),
 and found     1 'primitive' translations

 
 
 KPOINTS: Automatically generated mesh            
  k-points in reciprocal lattice
Space group operators:
 irot       det(A)        alpha          n_x          n_y          n_z        tau_x        tau_y        tau_z
    1     1.000000     0.000000     1.000000     0.000000     0.000000     0.000000     0.000000     0.000000
    2     1.000000   120.000000    -0.577350    -0.577350    -0.577350     0.000000     0.000000     0.000000
    3     1.000000   120.000000     0.577350     0.577350     0.577350     0.000000     0.000000     0.000000
    4    -1.000000    90.000000     0.000000    -1.000000     0.000000     0.000000     0.000000     0.000000
    5    -1.000000   180.000000     0.707107     0.707107     0.000000     0.000000     0.000000     0.000000
    6    -1.000000    90.000000     1.000000     0.000000    -0.000000     0.000000     0.000000     0.000000
    7     1.000000   180.000000     0.000000    -1.000000    -0.000000     0.000000     0.000000     0.000000
    8     1.000000   120.000000     0.577350     0.577350    -0.577350     0.000000     0.000000     0.000000
    9     1.000000   120.000000     0.577350    -0.577350    -0.577350     0.000000     0.000000     0.000000
   10    -1.000000    90.000000     0.000000     1.000000     0.000000     0.000000     0.000000     0.000000
   11    -1.000000    90.000000     0.000000     0.000000    -1.000000     0.000000     0.000000     0.000000
   12    -1.000000   180.000000     0.000000     0.707107     0.707107     0.000000     0.000000     0.000000
   13     1.000000   120.000000    -0.577350     0.577350     0.577350     0.000000     0.000000     0.000000
   14     1.000000   120.000000    -0.577350     0.577350    -0.577350     0.000000     0.000000     0.000000
   15     1.000000   180.000000     0.000000    -0.000000     1.000000     0.000000     0.000000     0.000000
   16    -1.000000    90.000000    -1.000000    -0.000000     0.000000     0.000000     0.000000     0.000000
   17    -1.000000   180.000000     0.707107     0.000000     0.707107     0.000000     0.000000     0.000000
   18    -1.000000    90.000000     0.000000     0.000000     1.000000     0.000000     0.000000     0.000000
   19     1.000000   120.000000    -0.577350    -0.577350     0.577350     0.000000     0.000000     0.000000
   20     1.000000   180.000000     1.000000     0.000000     0.000000     0.000000     0.000000     0.000000
   21     1.000000   120.000000     0.577350    -0.577350     0.577350     0.000000     0.000000     0.000000
   22    -1.000000   180.000000    -0.707107     0.707107     0.000000     0.000000     0.000000     0.000000
   23    -1.000000   180.000000     0.707107     0.000000    -0.707107     0.000000     0.000000     0.000000
   24    -1.000000   180.000000     0.000000    -0.707107     0.707107     0.000000     0.000000     0.000000
   25    -1.000000     0.000000     1.000000     0.000000     0.000000     0.250000     0.250000     0.250000
   26    -1.000000   120.000000    -0.577350    -0.577350    -0.577350     0.250000     0.250000     0.250000
   27    -1.000000   120.000000     0.577350     0.577350     0.577350     0.250000     0.250000     0.250000
   28     1.000000    90.000000     0.000000    -1.000000     0.000000     0.250000     0.250000     0.250000
   29     1.000000   180.000000     0.707107     0.707107     0.000000     0.250000     0.250000     0.250000
   30     1.000000    90.000000     1.000000     0.000000    -0.000000     0.250000     0.250000     0.250000
   31    -1.000000   180.000000     0.000000    -1.000000    -0.000000     0.250000     0.250000     0.250000
   32    -1.000000   120.000000     0.577350     0.577350    -0.577350     0.250000     0.250000     0.250000
   33    -1.000000   120.000000     0.577350    -0.577350    -0.577350     0.250000     0.250000     0.250000
   34     1.000000    90.000000     0.000000     1.000000     0.000000     0.250000     0.250000     0.250000
   35     1.000000    90.000000     0.000000     0.000000    -1.000000     0.250000     0.250000     0.250000
   36     1.000000   180.000000     0.000000     0.707107     0.707107     0.250000     0.250000     0.250000
   37    -1.000000   120.000000    -0.577350     0.577350     0.577350     0.250000     0.250000     0.250000
   38    -1.000000   120.000000    -0.577350     0.577350    -0.577350     0.250000     0.250000     0.250000
   39    -1.000000   180.000000     0.000000    -0.000000     1.000000     0.250000     0.250000     0.250000
   40     1.000000    90.000000    -1.000000    -0.000000     0.000000     0.250000     0.250000     0.250000
   41     1.000000   180.000000     0.707107     0.000000     0.707107     0.250000     0.250000     0.250000
   42     1.000000    90.000000     0.000000     0.000000     1.000000     0.250000     0.250000     0.250000
   43    -1.000000   120.000000    -0.577350    -0.577350     0.577350     0.250000     0.250000     0.250000
   44    -1.000000   180.000000     1.000000     0.000000     0.000000     0.250000     0.250000     0.250000
   45    -1.000000   120.000000     0.577350    -0.577350     0.577350     0.250000     0.250000     0.250000
   46     1.000000   180.000000    -0.707107     0.707107     0.000000     0.250000     0.250000     0.250000
   47     1.000000   180.000000     0.707107     0.000000    -0.707107     0.250000     0.250000     0.250000
   48     1.000000   180.000000     0.000000    -0.707107     0.707107     0.250000     0.250000     0.250000

 ----------------------------------------------------------------------------- 
|                                                                             |
|           W    W    AA    RRRRR   N    N  II  N    N   GGGG   !!!           |
|           W    W   A  A   R    R  NN   N  II  NN   N  G    G  !!!           |
|           W    W  A    A  R    R  N N  N  II  N N  N  G       !!!           |
|           W WW W  AAAAAA  RRRRR   N  N N  II  N  N N  G  GGG   !            |
|           WW  WW  A    A  R   R   N   NN  II  N   NN  G    G                |
|           W    W  A    A  R    R  N    N  II  N    N   GGGG   !!!           |
|                                                                             |
|      Your generating k-point grid is not commensurate to the symmetry       |
|      of the lattice.  This can cause   slow convergence with respect        |
|      to k-points for HF type calculations                                   |
|      suggested SOLUTIONS:                                                   |
|       ) if not already the case, use automatic k-point generation           |
|       ) shift your grid to Gamma (G) (e.g. required for hex or fcc lattice) |
|                                                                             |
 ----------------------------------------------------------------------------- 

 
 Subroutine IBZKPT_HF returns following result:
 ==============================================
 
 Found   1531 k-points in 1st BZ
 the following   1531 k-points will be used (e.g. in the exchange kernel)
 Following reciprocal coordinates:   # in IRBZ
  0.000000  0.000000  0.000000    0.00075131   1 t-inv F
  0.090909  0.000000  0.000000    0.00075131   2 t-inv F
  0.181818  0.000000  0.000000    0.00075131   3 t-inv F
  0.272727  0.000000  0.000000    0.00075131   4 t-inv F
  0.363636  0.000000  0.000000    0.00075131   5 t-inv F
  0.454545  0.000000  0.000000    0.00075131   6 t-inv F
  0.090909  0.090909  0.000000    0.00075131   7 t-inv F
  0.181818  0.090909  0.000000    0.00075131   8 t-inv F
  0.272727  0.090909  0.000000    0.00075131   9 t-inv F
  0.363636  0.090909  0.000000    0.00075131  10 t-inv F
  0.454545  0.090909  0.000000    0.00075131  11 t-inv F
 -0.454545  0.090909  0.000000    0.00075131  12 t-inv F
 -0.363636  0.090909  0.000000    0.00075131  13 t-inv F
 -0.272727  0.090909  0.000000    0.00075131  14 t-inv F
 -0.181818  0.090909  0.000000    0.00075131  15 t-inv F
 -0.090909  0.090909  0.000000    0.00075131  16 t-inv F
  0.181818  0.181818  0.000000    0.00075131  17 t-inv F
  0.272727  0.181818  0.000000    0.00075131  18 t-inv F
  0.363636  0.181818  0.000000    0.00075131  19 t-inv F
  0.454545  0.181818  0.000000    0.00075131  20 t-inv F
 -0.454545  0.181818  0.000000    0.00075131  21 t-inv F
 -0.363636  0.181818  0.000000    0.00075131  22 t-inv F
 -0.272727  0.181818  0.000000    0.00075131  23 t-inv F
 -0.181818  0.181818  0.000000    0.00075131  24 t-inv F
  0.272727  0.272727  0.000000    0.00075131  25 t-inv F
  0.363636  0.272727  0.000000    0.00075131  26 t-inv F
  0.454545  0.272727  0.000000    0.00075131  27 t-inv F
 -0.454545  0.272727  0.000000    0.00075131  28 t-inv F
 -0.363636  0.272727  0.000000    0.00075131  29 t-inv F
 -0.272727  0.272727  0.000000    0.00075131  30 t-inv F
  0.363636  0.363636  0.000000    0.00075131  31 t-inv F
  0.454545  0.363636  0.000000    0.00075131  32 t-inv F
 -0.454545  0.363636  0.000000    0.00075131  33 t-inv F
 -0.363636  0.363636  0.000000    0.00075131  34 t-inv F
  0.454545  0.454545  0.000000    0.00075131  35 t-inv F
 -0.454545  0.454545  0.000000    0.00075131  36 t-inv F
  0.272727  0.181818  0.090909    0.00075131  37 t-inv F
  0.363636  0.181818  0.090909    0.00075131  38 t-inv F
  0.454545  0.181818  0.090909    0.00075131  39 t-inv F
 -0.454545  0.181818  0.090909    0.00075131  40 t-inv F
  0.363636  0.272727  0.090909    0.00075131  41 t-inv F
  0.454545  0.272727  0.090909    0.00075131  42 t-inv F
 -0.454545  0.272727  0.090909    0.00075131  43 t-inv F
 -0.363636  0.272727  0.090909    0.00075131  44 t-inv F
 -0.272727  0.272727  0.090909    0.00075131  45 t-inv F
 -0.181818  0.272727  0.090909    0.00075131  46 t-inv F
  0.454545  0.363636  0.090909    0.00075131  47 t-inv F
 -0.454545  0.363636  0.090909    0.00075131  48 t-inv F
 -0.363636  0.363636  0.090909    0.00075131  49 t-inv F
 -0.272727  0.363636  0.090909    0.00075131  50 t-inv F
 -0.454545  0.454545  0.090909    0.00075131  51 t-inv F
 -0.363636  0.454545  0.090909    0.00075131  52 t-inv F
 -0.454545  0.363636  0.181818    0.00075131  53 t-inv F
 -0.363636  0.363636  0.181818    0.00075131  54 t-inv F
 -0.363636  0.454545  0.181818    0.00075131  55 t-inv F
 -0.272727  0.454545  0.181818    0.00075131  56 t-inv F
  0.000000  0.000000  0.000000    0.00000000  57 t-inv F
  0.026316  0.000000  0.026316    0.00000000  58 t-inv F
  0.052632  0.000000  0.052632    0.00000000  59 t-inv F
  0.078947  0.000000  0.078947    0.00000000  60 t-inv F
  0.105263  0.000000  0.105263    0.00000000  61 t-inv F
  0.131579  0.000000  0.131579    0.00000000  62 t-inv F
  0.157895  0.000000  0.157895    0.00000000  63 t-inv F
  0.184211  0.000000  0.184211    0.00000000  64 t-inv F
  0.210526  0.000000  0.210526    0.00000000  65 t-inv F
  0.236842  0.000000  0.236842    0.00000000  66 t-inv F
  0.263158  0.000000  0.263158    0.00000000  67 t-inv F
  0.289474  0.000000  0.289474    0.00000000  68 t-inv F
  0.315789  0.000000  0.315789    0.00000000  69 t-inv F
  0.342105  0.000000  0.342105    0.00000000  70 t-inv F
  0.368421  0.000000  0.368421    0.00000000  71 t-inv F
  0.394737  0.000000  0.394737    0.00000000  72 t-inv F
  0.421053  0.000000  0.421053    0.00000000  73 t-inv F
  0.447368  0.000000  0.447368    0.00000000  74 t-inv F
  0.473684  0.000000  0.473684    0.00000000  75 t-inv F
  0.500000  0.000000  0.500000    0.00000000  76 t-inv F
  0.500000  0.000000  0.500000    0.00000000  77 t-inv F
  0.500000  0.013158  0.513158    0.00000000  78 t-inv F
  0.500000  0.026316  0.526316    0.00000000  79 t-inv F
  0.500000  0.039474  0.539474    0.00000000  80 t-inv F
  0.500000  0.052632  0.552632    0.00000000  81 t-inv F
  0.500000  0.065789  0.565789    0.00000000  82 t-inv F
  0.500000  0.078947  0.578947    0.00000000  83 t-inv F
  0.500000  0.092105  0.592105    0.00000000  84 t-inv F
  0.500000  0.105263  0.605263    0.00000000  85 t-inv F
  0.500000  0.118421  0.618421    0.00000000  86 t-inv F
  0.500000  0.131579  0.631579    0.00000000  87 t-inv F
  0.500000  0.144737  0.644737    0.00000000  88 t-inv F
  0.500000  0.157895  0.657895    0.00000000  89 t-inv F
  0.500000  0.171053  0.671053    0.00000000  90 t-inv F
  0.500000  0.184211  0.684211    0.00000000  91 t-inv F
  0.500000  0.197368  0.697368    0.00000000  92 t-inv F
  0.500000  0.210526  0.710526    0.00000000  93 t-inv F
  0.500000  0.223684  0.723684    0.00000000  94 t-inv F
  0.500000  0.236842  0.736842    0.00000000  95 t-inv F
  0.500000  0.250000  0.750000    0.00000000  96 t-inv F
  0.500000  0.250000  0.750000    0.00000000  97 t-inv F
  0.493421  0.256579  0.750000    0.00000000  98 t-inv F
  0.486842  0.263158  0.750000    0.00000000  99 t-inv F
  0.480263  0.269737  0.750000    0.00000000 100 t-inv F
  0.473684  0.276316  0.750000    0.00000000 101 t-inv F
  0.467105  0.282895  0.750000    0.00000000 102 t-inv F
  0.460526  0.289474  0.750000    0.00000000 103 t-inv F
  0.453947  0.296053  0.750000    0.00000000 104 t-inv F
  0.447368  0.302632  0.750000    0.00000000 105 t-inv F
  0.440789  0.309211  0.750000    0.00000000 106 t-inv F
  0.434211  0.315789  0.750000    0.00000000 107 t-inv F
  0.427632  0.322368  0.750000    0.00000000 108 t-inv F
  0.421053  0.328947  0.750000    0.00000000 109 t-inv F
  0.414474  0.335526  0.750000    0.00000000 110 t-inv F
  0.407895  0.342105  0.750000    0.00000000 111 t-inv F
  0.401316  0.348684  0.750000    0.00000000 112 t-inv F
  0.394737  0.355263  0.750000    0.00000000 113 t-inv F
  0.388158  0.361842  0.750000    0.00000000 114 t-inv F
  0.381579  0.368421  0.750000    0.00000000 115 t-inv F
  0.375000  0.375000  0.750000    0.00000000 116 t-inv F
  0.375000  0.375000  0.750000    0.00000000 117 t-inv F
  0.355263  0.355263  0.710526    0.00000000 118 t-inv F
  0.335526  0.335526  0.671053    0.00000000 119 t-inv F
  0.315789  0.315789  0.631579    0.00000000 120 t-inv F
  0.296053  0.296053  0.592105    0.00000000 121 t-inv F
  0.276316  0.276316  0.552632    0.00000000 122 t-inv F
  0.256579  0.256579  0.513158    0.00000000 123 t-inv F
  0.236842  0.236842  0.473684    0.00000000 124 t-inv F
  0.217105  0.217105  0.434211    0.00000000 125 t-inv F
  0.197368  0.197368  0.394737    0.00000000 126 t-inv F
  0.177632  0.177632  0.355263    0.00000000 127 t-inv F
  0.157895  0.157895  0.315789    0.00000000 128 t-inv F
  0.138158  0.138158  0.276316    0.00000000 129 t-inv F
  0.118421  0.118421  0.236842    0.00000000 130 t-inv F
  0.098684  0.098684  0.197368    0.00000000 131 t-inv F
  0.078947  0.078947  0.157895    0.00000000 132 t-inv F
  0.059211  0.059211  0.118421    0.00000000 133 t-inv F
  0.039474  0.039474  0.078947    0.00000000 134 t-inv F
  0.019737  0.019737  0.039474    0.00000000 135 t-inv F
  0.000000  0.000000  0.000000    0.00000000 136 t-inv F
  0.000000  0.000000  0.000000    0.00000000 137 t-inv F
  0.026316  0.026316  0.026316    0.00000000 138 t-inv F
  0.052632  0.052632  0.052632    0.00000000 139 t-inv F
  0.078947  0.078947  0.078947    0.00000000 140 t-inv F
  0.105263  0.105263  0.105263    0.00000000 141 t-inv F
  0.131579  0.131579  0.131579    0.00000000 142 t-inv F
  0.157895  0.157895  0.157895    0.00000000 143 t-inv F
  0.184211  0.184211  0.184211    0.00000000 144 t-inv F
  0.210526  0.210526  0.210526    0.00000000 145 t-inv F
  0.236842  0.236842  0.236842    0.00000000 146 t-inv F
  0.263158  0.263158  0.263158    0.00000000 147 t-inv F
  0.289474  0.289474  0.289474    0.00000000 148 t-inv F
  0.315789  0.315789  0.315789    0.00000000 149 t-inv F
  0.342105  0.342105  0.342105    0.00000000 150 t-inv F
  0.368421  0.368421  0.368421    0.00000000 151 t-inv F
  0.394737  0.394737  0.394737    0.00000000 152 t-inv F
  0.421053  0.421053  0.421053    0.00000000 153 t-inv F
  0.447368  0.447368  0.447368    0.00000000 154 t-inv F
  0.473684  0.473684  0.473684    0.00000000 155 t-inv F
  0.500000  0.500000  0.500000    0.00000000 156 t-inv F
  0.500000  0.500000  0.500000    0.00000000 157 t-inv F
  0.506579  0.486842  0.506579    0.00000000 158 t-inv F
  0.513158  0.473684  0.513158    0.00000000 159 t-inv F
  0.519737  0.460526  0.519737    0.00000000 160 t-inv F
  0.526316  0.447368  0.526316    0.00000000 161 t-inv F
  0.532895  0.434211  0.532895    0.00000000 162 t-inv F
  0.539474  0.421053  0.539474    0.00000000 163 t-inv F
  0.546053  0.407895  0.546053    0.00000000 164 t-inv F
  0.552632  0.394737  0.552632    0.00000000 165 t-inv F
  0.559211  0.381579  0.559211    0.00000000 166 t-inv F
  0.565789  0.368421  0.565789    0.00000000 167 t-inv F
  0.572368  0.355263  0.572368    0.00000000 168 t-inv F
  0.578947  0.342105  0.578947    0.00000000 169 t-inv F
  0.585526  0.328947  0.585526    0.00000000 170 t-inv F
  0.592105  0.315789  0.592105    0.00000000 171 t-inv F
  0.598684  0.302632  0.598684    0.00000000 172 t-inv F
  0.605263  0.289474  0.605263    0.00000000 173 t-inv F
  0.611842  0.276316  0.611842    0.00000000 174 t-inv F
  0.618421  0.263158  0.618421    0.00000000 175 t-inv F
  0.625000  0.250000  0.625000    0.00000000 176 t-inv F
  0.625000  0.250000  0.625000    0.00000000 177 t-inv F
  0.618421  0.250000  0.631579    0.00000000 178 t-inv F
  0.611842  0.250000  0.638158    0.00000000 179 t-inv F
  0.605263  0.250000  0.644737    0.00000000 180 t-inv F
  0.598684  0.250000  0.651316    0.00000000 181 t-inv F
  0.592105  0.250000  0.657895    0.00000000 182 t-inv F
  0.585526  0.250000  0.664474    0.00000000 183 t-inv F
  0.578947  0.250000  0.671053    0.00000000 184 t-inv F
  0.572368  0.250000  0.677632    0.00000000 185 t-inv F
  0.565789  0.250000  0.684211    0.00000000 186 t-inv F
  0.559211  0.250000  0.690789    0.00000000 187 t-inv F
  0.552632  0.250000  0.697368    0.00000000 188 t-inv F
  0.546053  0.250000  0.703947    0.00000000 189 t-inv F
  0.539474  0.250000  0.710526    0.00000000 190 t-inv F
  0.532895  0.250000  0.717105    0.00000000 191 t-inv F
  0.526316  0.250000  0.723684    0.00000000 192 t-inv F
  0.519737  0.250000  0.730263    0.00000000 193 t-inv F
  0.513158  0.250000  0.736842    0.00000000 194 t-inv F
  0.506579  0.250000  0.743421    0.00000000 195 t-inv F
  0.500000  0.250000  0.750000    0.00000000 196 t-inv F
  0.500000  0.250000  0.750000    0.00000000 197 t-inv F
  0.500000  0.263158  0.736842    0.00000000 198 t-inv F
  0.500000  0.276316  0.723684    0.00000000 199 t-inv F
  0.500000  0.289474  0.710526    0.00000000 200 t-inv F
  0.500000  0.302632  0.697368    0.00000000 201 t-inv F
  0.500000  0.315789  0.684211    0.00000000 202 t-inv F
  0.500000  0.328947  0.671053    0.00000000 203 t-inv F
  0.500000  0.342105  0.657895    0.00000000 204 t-inv F
  0.500000  0.355263  0.644737    0.00000000 205 t-inv F
  0.500000  0.368421  0.631579    0.00000000 206 t-inv F
  0.500000  0.381579  0.618421    0.00000000 207 t-inv F
  0.500000  0.394737  0.605263    0.00000000 208 t-inv F
  0.500000  0.407895  0.592105    0.00000000 209 t-inv F
  0.500000  0.421053  0.578947    0.00000000 210 t-inv F
  0.500000  0.434211  0.565789    0.00000000 211 t-inv F
  0.500000  0.447368  0.552632    0.00000000 212 t-inv F
  0.500000  0.460526  0.539474    0.00000000 213 t-inv F
  0.500000  0.473684  0.526316    0.00000000 214 t-inv F
  0.500000  0.486842  0.513158    0.00000000 215 t-inv F
  0.500000  0.500000  0.500000    0.00000000 216 t-inv F
  0.500000  0.500000  0.500000    0.00000000 217 t-inv F
  0.493421  0.493421  0.513158    0.00000000 218 t-inv F
  0.486842  0.486842  0.526316    0.00000000 219 t-inv F
  0.480263  0.480263  0.539474    0.00000000 220 t-inv F
  0.473684  0.473684  0.552632    0.00000000 221 t-inv F
  0.467105  0.467105  0.565789    0.00000000 222 t-inv F
  0.460526  0.460526  0.578947    0.00000000 223 t-inv F
  0.453947  0.453947  0.592105    0.00000000 224 t-inv F
  0.447368  0.447368  0.605263    0.00000000 225 t-inv F
  0.440789  0.440789  0.618421    0.00000000 226 t-inv F
  0.434211  0.434211  0.631579    0.00000000 227 t-inv F
  0.427632  0.427632  0.644737    0.00000000 228 t-inv F
  0.421053  0.421053  0.657895    0.00000000 229 t-inv F
  0.414474  0.414474  0.671053    0.00000000 230 t-inv F
  0.407895  0.407895  0.684211    0.00000000 231 t-inv F
  0.401316  0.401316  0.697368    0.00000000 232 t-inv F
  0.394737  0.394737  0.710526    0.00000000 233 t-inv F
  0.388158  0.388158  0.723684    0.00000000 234 t-inv F
  0.381579  0.381579  0.736842    0.00000000 235 t-inv F
  0.375000  0.375000  0.750000    0.00000000 236 t-inv F
  0.625000  0.250000  0.625000    0.00000000 237 t-inv F
  0.618421  0.236842  0.618421    0.00000000 238 t-inv F
  0.611842  0.223684  0.611842    0.00000000 239 t-inv F
  0.605263  0.210526  0.605263    0.00000000 240 t-inv F
  0.598684  0.197368  0.598684    0.00000000 241 t-inv F
  0.592105  0.184211  0.592105    0.00000000 242 t-inv F
  0.585526  0.171053  0.585526    0.00000000 243 t-inv F
  0.578947  0.157895  0.578947    0.00000000 244 t-inv F
  0.572368  0.144737  0.572368    0.00000000 245 t-inv F
  0.565789  0.131579  0.565789    0.00000000 246 t-inv F
  0.559211  0.118421  0.559211    0.00000000 247 t-inv F
  0.552632  0.105263  0.552632    0.00000000 248 t-inv F
  0.546053  0.092105  0.546053    0.00000000 249 t-inv F
  0.539474  0.078947  0.539474    0.00000000 250 t-inv F
  0.532895  0.065789  0.532895    0.00000000 251 t-inv F
  0.526316  0.052632  0.526316    0.00000000 252 t-inv F
  0.519737  0.039474  0.519737    0.00000000 253 t-inv F
  0.513158  0.026316  0.513158    0.00000000 254 t-inv F
  0.506579  0.013158  0.506579    0.00000000 255 t-inv F
  0.500000  0.000000  0.500000    0.00000000 256 t-inv F
  0.000000  0.090909  0.000000    0.00075131   2 t-inv F
  0.000000  0.000000  0.090909    0.00075131   2 t-inv F
 -0.090909 -0.090909 -0.090909    0.00075131   2 t-inv F
 -0.090909  0.000000  0.000000    0.00075131   2 t-inv F
  0.000000 -0.090909  0.000000    0.00075131   2 t-inv F
  0.000000  0.000000 -0.090909    0.00075131   2 t-inv F
  0.090909  0.090909  0.090909    0.00075131   2 t-inv F
  0.000000  0.181818  0.000000    0.00075131   3 t-inv F
  0.000000  0.000000  0.181818    0.00075131   3 t-inv F
 -0.181818 -0.181818 -0.181818    0.00075131   3 t-inv F
 -0.181818  0.000000  0.000000    0.00075131   3 t-inv F
  0.000000 -0.181818  0.000000    0.00075131   3 t-inv F
  0.000000  0.000000 -0.181818    0.00075131   3 t-inv F
  0.181818  0.181818  0.181818    0.00075131   3 t-inv F
  0.000000  0.272727  0.000000    0.00075131   4 t-inv F
  0.000000  0.000000  0.272727    0.00075131   4 t-inv F
 -0.272727 -0.272727 -0.272727    0.00075131   4 t-inv F
 -0.272727  0.000000  0.000000    0.00075131   4 t-inv F
  0.000000 -0.272727  0.000000    0.00075131   4 t-inv F
  0.000000  0.000000 -0.272727    0.00075131   4 t-inv F
  0.272727  0.272727  0.272727    0.00075131   4 t-inv F
  0.000000  0.363636  0.000000    0.00075131   5 t-inv F
  0.000000  0.000000  0.363636    0.00075131   5 t-inv F
 -0.363636 -0.363636 -0.363636    0.00075131   5 t-inv F
 -0.363636  0.000000  0.000000    0.00075131   5 t-inv F
  0.000000 -0.363636  0.000000    0.00075131   5 t-inv F
  0.000000  0.000000 -0.363636    0.00075131   5 t-inv F
  0.363636  0.363636  0.363636    0.00075131   5 t-inv F
  0.000000  0.454545  0.000000    0.00075131   6 t-inv F
  0.000000  0.000000  0.454545    0.00075131   6 t-inv F
 -0.454545 -0.454545 -0.454545    0.00075131   6 t-inv F
 -0.454545  0.000000  0.000000    0.00075131   6 t-inv F
  0.000000 -0.454545  0.000000    0.00075131   6 t-inv F
  0.000000  0.000000 -0.454545    0.00075131   6 t-inv F
  0.454545  0.454545  0.454545    0.00075131   6 t-inv F
  0.000000  0.090909  0.090909    0.00075131   7 t-inv F
  0.090909  0.000000  0.090909    0.00075131   7 t-inv F
 -0.090909 -0.090909  0.000000    0.00075131   7 t-inv F
 -0.090909  0.000000 -0.090909    0.00075131   7 t-inv F
  0.000000 -0.090909 -0.090909    0.00075131   7 t-inv F
  0.000000  0.181818  0.090909    0.00075131   8 t-inv F
  0.090909  0.000000  0.181818    0.00075131   8 t-inv F
 -0.090909 -0.090909  0.090909    0.00075131   8 t-inv F
 -0.181818 -0.090909 -0.181818    0.00075131   8 t-inv F
  0.090909  0.181818  0.000000    0.00075131   8 t-inv F
  0.090909 -0.090909 -0.090909    0.00075131   8 t-inv F
 -0.181818 -0.181818 -0.090909    0.00075131   8 t-inv F
  0.000000  0.090909  0.181818    0.00075131   8 t-inv F
 -0.090909  0.090909 -0.090909    0.00075131   8 t-inv F
 -0.090909 -0.181818 -0.181818    0.00075131   8 t-inv F
  0.181818  0.000000  0.090909    0.00075131   8 t-inv F
 -0.181818 -0.090909  0.000000    0.00075131   8 t-inv F
  0.000000 -0.181818 -0.090909    0.00075131   8 t-inv F
 -0.090909  0.000000 -0.181818    0.00075131   8 t-inv F
  0.090909  0.090909 -0.090909    0.00075131   8 t-inv F
  0.181818  0.090909  0.181818    0.00075131   8 t-inv F
 -0.090909 -0.181818  0.000000    0.00075131   8 t-inv F
 -0.090909  0.090909  0.090909    0.00075131   8 t-inv F
  0.181818  0.181818  0.090909    0.00075131   8 t-inv F
  0.000000 -0.090909 -0.181818    0.00075131   8 t-inv F
  0.090909 -0.090909  0.090909    0.00075131   8 t-inv F
  0.090909  0.181818  0.181818    0.00075131   8 t-inv F
 -0.181818  0.000000 -0.090909    0.00075131   8 t-inv F
  0.000000  0.272727  0.090909    0.00075131   9 t-inv F
  0.090909  0.000000  0.272727    0.00075131   9 t-inv F
 -0.090909 -0.090909  0.181818    0.00075131   9 t-inv F
 -0.272727 -0.181818 -0.272727    0.00075131   9 t-inv F
  0.090909  0.272727  0.000000    0.00075131   9 t-inv F
  0.181818 -0.090909 -0.090909    0.00075131   9 t-inv F
 -0.272727 -0.272727 -0.181818    0.00075131   9 t-inv F
  0.000000  0.090909  0.272727    0.00075131   9 t-inv F
 -0.090909  0.181818 -0.090909    0.00075131   9 t-inv F
 -0.181818 -0.272727 -0.272727    0.00075131   9 t-inv F
  0.272727  0.000000  0.090909    0.00075131   9 t-inv F
 -0.272727 -0.090909  0.000000    0.00075131   9 t-inv F
  0.000000 -0.272727 -0.090909    0.00075131   9 t-inv F
 -0.090909  0.000000 -0.272727    0.00075131   9 t-inv F
  0.090909  0.090909 -0.181818    0.00075131   9 t-inv F
  0.272727  0.181818  0.272727    0.00075131   9 t-inv F
 -0.090909 -0.272727  0.000000    0.00075131   9 t-inv F
 -0.181818  0.090909  0.090909    0.00075131   9 t-inv F
  0.272727  0.272727  0.181818    0.00075131   9 t-inv F
  0.000000 -0.090909 -0.272727    0.00075131   9 t-inv F
  0.090909 -0.181818  0.090909    0.00075131   9 t-inv F
  0.181818  0.272727  0.272727    0.00075131   9 t-inv F
 -0.272727  0.000000 -0.090909    0.00075131   9 t-inv F
  0.000000  0.363636  0.090909    0.00075131  10 t-inv F
  0.090909  0.000000  0.363636    0.00075131  10 t-inv F
 -0.090909 -0.090909  0.272727    0.00075131  10 t-inv F
 -0.363636 -0.272727 -0.363636    0.00075131  10 t-inv F
  0.090909  0.363636  0.000000    0.00075131  10 t-inv F
  0.272727 -0.090909 -0.090909    0.00075131  10 t-inv F
 -0.363636 -0.363636 -0.272727    0.00075131  10 t-inv F
  0.000000  0.090909  0.363636    0.00075131  10 t-inv F
 -0.090909  0.272727 -0.090909    0.00075131  10 t-inv F
 -0.272727 -0.363636 -0.363636    0.00075131  10 t-inv F
  0.363636  0.000000  0.090909    0.00075131  10 t-inv F
 -0.363636 -0.090909  0.000000    0.00075131  10 t-inv F
  0.000000 -0.363636 -0.090909    0.00075131  10 t-inv F
 -0.090909  0.000000 -0.363636    0.00075131  10 t-inv F
  0.090909  0.090909 -0.272727    0.00075131  10 t-inv F
  0.363636  0.272727  0.363636    0.00075131  10 t-inv F
 -0.090909 -0.363636  0.000000    0.00075131  10 t-inv F
 -0.272727  0.090909  0.090909    0.00075131  10 t-inv F
  0.363636  0.363636  0.272727    0.00075131  10 t-inv F
  0.000000 -0.090909 -0.363636    0.00075131  10 t-inv F
  0.090909 -0.272727  0.090909    0.00075131  10 t-inv F
  0.272727  0.363636  0.363636    0.00075131  10 t-inv F
 -0.363636  0.000000 -0.090909    0.00075131  10 t-inv F
  0.000000  0.454545  0.090909    0.00075131  11 t-inv F
  0.090909  0.000000  0.454545    0.00075131  11 t-inv F
 -0.090909 -0.090909  0.363636    0.00075131  11 t-inv F
 -0.454545 -0.363636 -0.454545    0.00075131  11 t-inv F
  0.090909  0.454545  0.000000    0.00075131  11 t-inv F
  0.363636 -0.090909 -0.090909    0.00075131  11 t-inv F
 -0.454545 -0.454545 -0.363636    0.00075131  11 t-inv F
  0.000000  0.090909  0.454545    0.00075131  11 t-inv F
 -0.090909  0.363636 -0.090909    0.00075131  11 t-inv F
 -0.363636 -0.454545 -0.454545    0.00075131  11 t-inv F
  0.454545  0.000000  0.090909    0.00075131  11 t-inv F
 -0.454545 -0.090909  0.000000    0.00075131  11 t-inv F
  0.000000 -0.454545 -0.090909    0.00075131  11 t-inv F
 -0.090909  0.000000 -0.454545    0.00075131  11 t-inv F
  0.090909  0.090909 -0.363636    0.00075131  11 t-inv F
  0.454545  0.363636  0.454545    0.00075131  11 t-inv F
 -0.090909 -0.454545  0.000000    0.00075131  11 t-inv F
 -0.363636  0.090909  0.090909    0.00075131  11 t-inv F
  0.454545  0.454545  0.363636    0.00075131  11 t-inv F
  0.000000 -0.090909 -0.454545    0.00075131  11 t-inv F
  0.090909 -0.363636  0.090909    0.00075131  11 t-inv F
  0.363636  0.454545  0.454545    0.00075131  11 t-inv F
 -0.454545  0.000000 -0.090909    0.00075131  11 t-inv F
  0.000000 -0.454545  0.090909    0.00075131  12 t-inv F
  0.090909  0.000000 -0.454545    0.00075131  12 t-inv F
 -0.090909 -0.090909 -0.545455    0.00075131  12 t-inv F
  0.454545  0.545455  0.454545    0.00075131  12 t-inv F
  0.090909 -0.454545  0.000000    0.00075131  12 t-inv F
 -0.545455 -0.090909 -0.090909    0.00075131  12 t-inv F
  0.454545  0.454545  0.545455    0.00075131  12 t-inv F
  0.000000  0.090909 -0.454545    0.00075131  12 t-inv F
 -0.090909 -0.545455 -0.090909    0.00075131  12 t-inv F
  0.545455  0.454545  0.454545    0.00075131  12 t-inv F
 -0.454545  0.000000  0.090909    0.00075131  12 t-inv F
  0.454545 -0.090909  0.000000    0.00075131  12 t-inv F
  0.000000  0.454545 -0.090909    0.00075131  12 t-inv F
 -0.090909  0.000000  0.454545    0.00075131  12 t-inv F
  0.090909  0.090909  0.545455    0.00075131  12 t-inv F
 -0.454545 -0.545455 -0.454545    0.00075131  12 t-inv F
 -0.090909  0.454545  0.000000    0.00075131  12 t-inv F
  0.545455  0.090909  0.090909    0.00075131  12 t-inv F
 -0.454545 -0.454545 -0.545455    0.00075131  12 t-inv F
  0.000000 -0.090909  0.454545    0.00075131  12 t-inv F
  0.090909  0.545455  0.090909    0.00075131  12 t-inv F
 -0.545455 -0.454545 -0.454545    0.00075131  12 t-inv F
  0.454545  0.000000 -0.090909    0.00075131  12 t-inv F
  0.000000 -0.363636  0.090909    0.00075131  13 t-inv F
  0.090909  0.000000 -0.363636    0.00075131  13 t-inv F
 -0.090909 -0.090909 -0.454545    0.00075131  13 t-inv F
  0.363636  0.454545  0.363636    0.00075131  13 t-inv F
  0.090909 -0.363636  0.000000    0.00075131  13 t-inv F
 -0.454545 -0.090909 -0.090909    0.00075131  13 t-inv F
  0.363636  0.363636  0.454545    0.00075131  13 t-inv F
  0.000000  0.090909 -0.363636    0.00075131  13 t-inv F
 -0.090909 -0.454545 -0.090909    0.00075131  13 t-inv F
  0.454545  0.363636  0.363636    0.00075131  13 t-inv F
 -0.363636  0.000000  0.090909    0.00075131  13 t-inv F
  0.363636 -0.090909  0.000000    0.00075131  13 t-inv F
  0.000000  0.363636 -0.090909    0.00075131  13 t-inv F
 -0.090909  0.000000  0.363636    0.00075131  13 t-inv F
  0.090909  0.090909  0.454545    0.00075131  13 t-inv F
 -0.363636 -0.454545 -0.363636    0.00075131  13 t-inv F
 -0.090909  0.363636  0.000000    0.00075131  13 t-inv F
  0.454545  0.090909  0.090909    0.00075131  13 t-inv F
 -0.363636 -0.363636 -0.454545    0.00075131  13 t-inv F
  0.000000 -0.090909  0.363636    0.00075131  13 t-inv F
  0.090909  0.454545  0.090909    0.00075131  13 t-inv F
 -0.454545 -0.363636 -0.363636    0.00075131  13 t-inv F
  0.363636  0.000000 -0.090909    0.00075131  13 t-inv F
  0.000000 -0.272727  0.090909    0.00075131  14 t-inv F
  0.090909  0.000000 -0.272727    0.00075131  14 t-inv F
 -0.090909 -0.090909 -0.363636    0.00075131  14 t-inv F
  0.272727  0.363636  0.272727    0.00075131  14 t-inv F
  0.090909 -0.272727  0.000000    0.00075131  14 t-inv F
 -0.363636 -0.090909 -0.090909    0.00075131  14 t-inv F
  0.272727  0.272727  0.363636    0.00075131  14 t-inv F
  0.000000  0.090909 -0.272727    0.00075131  14 t-inv F
 -0.090909 -0.363636 -0.090909    0.00075131  14 t-inv F
  0.363636  0.272727  0.272727    0.00075131  14 t-inv F
 -0.272727  0.000000  0.090909    0.00075131  14 t-inv F
  0.272727 -0.090909  0.000000    0.00075131  14 t-inv F
  0.000000  0.272727 -0.090909    0.00075131  14 t-inv F
 -0.090909  0.000000  0.272727    0.00075131  14 t-inv F
  0.090909  0.090909  0.363636    0.00075131  14 t-inv F
 -0.272727 -0.363636 -0.272727    0.00075131  14 t-inv F
 -0.090909  0.272727  0.000000    0.00075131  14 t-inv F
  0.363636  0.090909  0.090909    0.00075131  14 t-inv F
 -0.272727 -0.272727 -0.363636    0.00075131  14 t-inv F
  0.000000 -0.090909  0.272727    0.00075131  14 t-inv F
  0.090909  0.363636  0.090909    0.00075131  14 t-inv F
 -0.363636 -0.272727 -0.272727    0.00075131  14 t-inv F
  0.272727  0.000000 -0.090909    0.00075131  14 t-inv F
  0.000000 -0.181818  0.090909    0.00075131  15 t-inv F
  0.090909  0.000000 -0.181818    0.00075131  15 t-inv F
 -0.090909 -0.090909 -0.272727    0.00075131  15 t-inv F
  0.181818  0.272727  0.181818    0.00075131  15 t-inv F
  0.090909 -0.181818  0.000000    0.00075131  15 t-inv F
 -0.272727 -0.090909 -0.090909    0.00075131  15 t-inv F
  0.181818  0.181818  0.272727    0.00075131  15 t-inv F
  0.000000  0.090909 -0.181818    0.00075131  15 t-inv F
 -0.090909 -0.272727 -0.090909    0.00075131  15 t-inv F
  0.272727  0.181818  0.181818    0.00075131  15 t-inv F
 -0.181818  0.000000  0.090909    0.00075131  15 t-inv F
  0.181818 -0.090909  0.000000    0.00075131  15 t-inv F
  0.000000  0.181818 -0.090909    0.00075131  15 t-inv F
 -0.090909  0.000000  0.181818    0.00075131  15 t-inv F
  0.090909  0.090909  0.272727    0.00075131  15 t-inv F
 -0.181818 -0.272727 -0.181818    0.00075131  15 t-inv F
 -0.090909  0.181818  0.000000    0.00075131  15 t-inv F
  0.272727  0.090909  0.090909    0.00075131  15 t-inv F
 -0.181818 -0.181818 -0.272727    0.00075131  15 t-inv F
  0.000000 -0.090909  0.181818    0.00075131  15 t-inv F
  0.090909  0.272727  0.090909    0.00075131  15 t-inv F
 -0.272727 -0.181818 -0.181818    0.00075131  15 t-inv F
  0.181818  0.000000 -0.090909    0.00075131  15 t-inv F
  0.000000 -0.090909  0.090909    0.00075131  16 t-inv F
  0.090909  0.000000 -0.090909    0.00075131  16 t-inv F
 -0.090909 -0.090909 -0.181818    0.00075131  16 t-inv F
  0.090909  0.181818  0.090909    0.00075131  16 t-inv F
  0.090909 -0.090909  0.000000    0.00075131  16 t-inv F
 -0.181818 -0.090909 -0.090909    0.00075131  16 t-inv F
  0.090909  0.090909  0.181818    0.00075131  16 t-inv F
  0.000000  0.090909 -0.090909    0.00075131  16 t-inv F
 -0.090909 -0.181818 -0.090909    0.00075131  16 t-inv F
  0.181818  0.090909  0.090909    0.00075131  16 t-inv F
 -0.090909  0.000000  0.090909    0.00075131  16 t-inv F
  0.000000  0.181818  0.181818    0.00075131  17 t-inv F
  0.181818  0.000000  0.181818    0.00075131  17 t-inv F
 -0.181818 -0.181818  0.000000    0.00075131  17 t-inv F
 -0.181818  0.000000 -0.181818    0.00075131  17 t-inv F
  0.000000 -0.181818 -0.181818    0.00075131  17 t-inv F
  0.000000  0.272727  0.181818    0.00075131  18 t-inv F
  0.181818  0.000000  0.272727    0.00075131  18 t-inv F
 -0.181818 -0.181818  0.090909    0.00075131  18 t-inv F
 -0.272727 -0.090909 -0.272727    0.00075131  18 t-inv F
  0.181818  0.272727  0.000000    0.00075131  18 t-inv F
  0.090909 -0.181818 -0.181818    0.00075131  18 t-inv F
 -0.272727 -0.272727 -0.090909    0.00075131  18 t-inv F
  0.000000  0.181818  0.272727    0.00075131  18 t-inv F
 -0.181818  0.090909 -0.181818    0.00075131  18 t-inv F
 -0.090909 -0.272727 -0.272727    0.00075131  18 t-inv F
  0.272727  0.000000  0.181818    0.00075131  18 t-inv F
 -0.272727 -0.181818  0.000000    0.00075131  18 t-inv F
  0.000000 -0.272727 -0.181818    0.00075131  18 t-inv F
 -0.181818  0.000000 -0.272727    0.00075131  18 t-inv F
  0.181818  0.181818 -0.090909    0.00075131  18 t-inv F
  0.272727  0.090909  0.272727    0.00075131  18 t-inv F
 -0.181818 -0.272727  0.000000    0.00075131  18 t-inv F
 -0.090909  0.181818  0.181818    0.00075131  18 t-inv F
  0.272727  0.272727  0.090909    0.00075131  18 t-inv F
  0.000000 -0.181818 -0.272727    0.00075131  18 t-inv F
  0.181818 -0.090909  0.181818    0.00075131  18 t-inv F
  0.090909  0.272727  0.272727    0.00075131  18 t-inv F
 -0.272727  0.000000 -0.181818    0.00075131  18 t-inv F
  0.000000  0.363636  0.181818    0.00075131  19 t-inv F
  0.181818  0.000000  0.363636    0.00075131  19 t-inv F
 -0.181818 -0.181818  0.181818    0.00075131  19 t-inv F
 -0.363636 -0.181818 -0.363636    0.00075131  19 t-inv F
  0.181818  0.363636  0.000000    0.00075131  19 t-inv F
  0.181818 -0.181818 -0.181818    0.00075131  19 t-inv F
 -0.363636 -0.363636 -0.181818    0.00075131  19 t-inv F
  0.000000  0.181818  0.363636    0.00075131  19 t-inv F
 -0.181818  0.181818 -0.181818    0.00075131  19 t-inv F
 -0.181818 -0.363636 -0.363636    0.00075131  19 t-inv F
  0.363636  0.000000  0.181818    0.00075131  19 t-inv F
 -0.363636 -0.181818  0.000000    0.00075131  19 t-inv F
  0.000000 -0.363636 -0.181818    0.00075131  19 t-inv F
 -0.181818  0.000000 -0.363636    0.00075131  19 t-inv F
  0.181818  0.181818 -0.181818    0.00075131  19 t-inv F
  0.363636  0.181818  0.363636    0.00075131  19 t-inv F
 -0.181818 -0.363636  0.000000    0.00075131  19 t-inv F
 -0.181818  0.181818  0.181818    0.00075131  19 t-inv F
  0.363636  0.363636  0.181818    0.00075131  19 t-inv F
  0.000000 -0.181818 -0.363636    0.00075131  19 t-inv F
  0.181818 -0.181818  0.181818    0.00075131  19 t-inv F
  0.181818  0.363636  0.363636    0.00075131  19 t-inv F
 -0.363636  0.000000 -0.181818    0.00075131  19 t-inv F
  0.000000  0.454545  0.181818    0.00075131  20 t-inv F
  0.181818  0.000000  0.454545    0.00075131  20 t-inv F
 -0.181818 -0.181818  0.272727    0.00075131  20 t-inv F
 -0.454545 -0.272727 -0.454545    0.00075131  20 t-inv F
  0.181818  0.454545  0.000000    0.00075131  20 t-inv F
  0.272727 -0.181818 -0.181818    0.00075131  20 t-inv F
 -0.454545 -0.454545 -0.272727    0.00075131  20 t-inv F
  0.000000  0.181818  0.454545    0.00075131  20 t-inv F
 -0.181818  0.272727 -0.181818    0.00075131  20 t-inv F
 -0.272727 -0.454545 -0.454545    0.00075131  20 t-inv F
  0.454545  0.000000  0.181818    0.00075131  20 t-inv F
 -0.454545 -0.181818  0.000000    0.00075131  20 t-inv F
  0.000000 -0.454545 -0.181818    0.00075131  20 t-inv F
 -0.181818  0.000000 -0.454545    0.00075131  20 t-inv F
  0.181818  0.181818 -0.272727    0.00075131  20 t-inv F
  0.454545  0.272727  0.454545    0.00075131  20 t-inv F
 -0.181818 -0.454545  0.000000    0.00075131  20 t-inv F
 -0.272727  0.181818  0.181818    0.00075131  20 t-inv F
  0.454545  0.454545  0.272727    0.00075131  20 t-inv F
  0.000000 -0.181818 -0.454545    0.00075131  20 t-inv F
  0.181818 -0.272727  0.181818    0.00075131  20 t-inv F
  0.272727  0.454545  0.454545    0.00075131  20 t-inv F
 -0.454545  0.000000 -0.181818    0.00075131  20 t-inv F
  0.000000 -0.454545  0.181818    0.00075131  21 t-inv F
  0.181818  0.000000 -0.454545    0.00075131  21 t-inv F
 -0.181818 -0.181818 -0.636364    0.00075131  21 t-inv F
  0.454545  0.636364  0.454545    0.00075131  21 t-inv F
  0.181818 -0.454545  0.000000    0.00075131  21 t-inv F
 -0.636364 -0.181818 -0.181818    0.00075131  21 t-inv F
  0.454545  0.454545  0.636364    0.00075131  21 t-inv F
  0.000000  0.181818 -0.454545    0.00075131  21 t-inv F
 -0.181818 -0.636364 -0.181818    0.00075131  21 t-inv F
  0.636364  0.454545  0.454545    0.00075131  21 t-inv F
 -0.454545  0.000000  0.181818    0.00075131  21 t-inv F
  0.454545 -0.181818  0.000000    0.00075131  21 t-inv F
  0.000000  0.454545 -0.181818    0.00075131  21 t-inv F
 -0.181818  0.000000  0.454545    0.00075131  21 t-inv F
  0.181818  0.181818  0.636364    0.00075131  21 t-inv F
 -0.454545 -0.636364 -0.454545    0.00075131  21 t-inv F
 -0.181818  0.454545  0.000000    0.00075131  21 t-inv F
  0.636364  0.181818  0.181818    0.00075131  21 t-inv F
 -0.454545 -0.454545 -0.636364    0.00075131  21 t-inv F
  0.000000 -0.181818  0.454545    0.00075131  21 t-inv F
  0.181818  0.636364  0.181818    0.00075131  21 t-inv F
 -0.636364 -0.454545 -0.454545    0.00075131  21 t-inv F
  0.454545  0.000000 -0.181818    0.00075131  21 t-inv F
  0.000000 -0.363636  0.181818    0.00075131  22 t-inv F
  0.181818  0.000000 -0.363636    0.00075131  22 t-inv F
 -0.181818 -0.181818 -0.545455    0.00075131  22 t-inv F
  0.363636  0.545455  0.363636    0.00075131  22 t-inv F
  0.181818 -0.363636  0.000000    0.00075131  22 t-inv F
 -0.545455 -0.181818 -0.181818    0.00075131  22 t-inv F
  0.363636  0.363636  0.545455    0.00075131  22 t-inv F
  0.000000  0.181818 -0.363636    0.00075131  22 t-inv F
 -0.181818 -0.545455 -0.181818    0.00075131  22 t-inv F
  0.545455  0.363636  0.363636    0.00075131  22 t-inv F
 -0.363636  0.000000  0.181818    0.00075131  22 t-inv F
  0.363636 -0.181818  0.000000    0.00075131  22 t-inv F
  0.000000  0.363636 -0.181818    0.00075131  22 t-inv F
 -0.181818  0.000000  0.363636    0.00075131  22 t-inv F
  0.181818  0.181818  0.545455    0.00075131  22 t-inv F
 -0.363636 -0.545455 -0.363636    0.00075131  22 t-inv F
 -0.181818  0.363636  0.000000    0.00075131  22 t-inv F
  0.545455  0.181818  0.181818    0.00075131  22 t-inv F
 -0.363636 -0.363636 -0.545455    0.00075131  22 t-inv F
  0.000000 -0.181818  0.363636    0.00075131  22 t-inv F
  0.181818  0.545455  0.181818    0.00075131  22 t-inv F
 -0.545455 -0.363636 -0.363636    0.00075131  22 t-inv F
  0.363636  0.000000 -0.181818    0.00075131  22 t-inv F
  0.000000 -0.272727  0.181818    0.00075131  23 t-inv F
  0.181818  0.000000 -0.272727    0.00075131  23 t-inv F
 -0.181818 -0.181818 -0.454545    0.00075131  23 t-inv F
  0.272727  0.454545  0.272727    0.00075131  23 t-inv F
  0.181818 -0.272727  0.000000    0.00075131  23 t-inv F
 -0.454545 -0.181818 -0.181818    0.00075131  23 t-inv F
  0.272727  0.272727  0.454545    0.00075131  23 t-inv F
  0.000000  0.181818 -0.272727    0.00075131  23 t-inv F
 -0.181818 -0.454545 -0.181818    0.00075131  23 t-inv F
  0.454545  0.272727  0.272727    0.00075131  23 t-inv F
 -0.272727  0.000000  0.181818    0.00075131  23 t-inv F
  0.272727 -0.181818  0.000000    0.00075131  23 t-inv F
  0.000000  0.272727 -0.181818    0.00075131  23 t-inv F
 -0.181818  0.000000  0.272727    0.00075131  23 t-inv F
  0.181818  0.181818  0.454545    0.00075131  23 t-inv F
 -0.272727 -0.454545 -0.272727    0.00075131  23 t-inv F
 -0.181818  0.272727  0.000000    0.00075131  23 t-inv F
  0.454545  0.181818  0.181818    0.00075131  23 t-inv F
 -0.272727 -0.272727 -0.454545    0.00075131  23 t-inv F
  0.000000 -0.181818  0.272727    0.00075131  23 t-inv F
  0.181818  0.454545  0.181818    0.00075131  23 t-inv F
 -0.454545 -0.272727 -0.272727    0.00075131  23 t-inv F
  0.272727  0.000000 -0.181818    0.00075131  23 t-inv F
  0.000000 -0.181818  0.181818    0.00075131  24 t-inv F
  0.181818  0.000000 -0.181818    0.00075131  24 t-inv F
 -0.181818 -0.181818 -0.363636    0.00075131  24 t-inv F
  0.181818  0.363636  0.181818    0.00075131  24 t-inv F
  0.181818 -0.181818  0.000000    0.00075131  24 t-inv F
 -0.363636 -0.181818 -0.181818    0.00075131  24 t-inv F
  0.181818  0.181818  0.363636    0.00075131  24 t-inv F
  0.000000  0.181818 -0.181818    0.00075131  24 t-inv F
 -0.181818 -0.363636 -0.181818    0.00075131  24 t-inv F
  0.363636  0.181818  0.181818    0.00075131  24 t-inv F
 -0.181818  0.000000  0.181818    0.00075131  24 t-inv F
  0.000000  0.272727  0.272727    0.00075131  25 t-inv F
  0.272727  0.000000  0.272727    0.00075131  25 t-inv F
 -0.272727 -0.272727  0.000000    0.00075131  25 t-inv F
 -0.272727  0.000000 -0.272727    0.00075131  25 t-inv F
  0.000000 -0.272727 -0.272727    0.00075131  25 t-inv F
  0.000000  0.363636  0.272727    0.00075131  26 t-inv F
  0.272727  0.000000  0.363636    0.00075131  26 t-inv F
 -0.272727 -0.272727  0.090909    0.00075131  26 t-inv F
 -0.363636 -0.090909 -0.363636    0.00075131  26 t-inv F
  0.272727  0.363636  0.000000    0.00075131  26 t-inv F
  0.090909 -0.272727 -0.272727    0.00075131  26 t-inv F
 -0.363636 -0.363636 -0.090909    0.00075131  26 t-inv F
  0.000000  0.272727  0.363636    0.00075131  26 t-inv F
 -0.272727  0.090909 -0.272727    0.00075131  26 t-inv F
 -0.090909 -0.363636 -0.363636    0.00075131  26 t-inv F
  0.363636  0.000000  0.272727    0.00075131  26 t-inv F
 -0.363636 -0.272727  0.000000    0.00075131  26 t-inv F
  0.000000 -0.363636 -0.272727    0.00075131  26 t-inv F
 -0.272727  0.000000 -0.363636    0.00075131  26 t-inv F
  0.272727  0.272727 -0.090909    0.00075131  26 t-inv F
  0.363636  0.090909  0.363636    0.00075131  26 t-inv F
 -0.272727 -0.363636  0.000000    0.00075131  26 t-inv F
 -0.090909  0.272727  0.272727    0.00075131  26 t-inv F
  0.363636  0.363636  0.090909    0.00075131  26 t-inv F
  0.000000 -0.272727 -0.363636    0.00075131  26 t-inv F
  0.272727 -0.090909  0.272727    0.00075131  26 t-inv F
  0.090909  0.363636  0.363636    0.00075131  26 t-inv F
 -0.363636  0.000000 -0.272727    0.00075131  26 t-inv F
  0.000000  0.454545  0.272727    0.00075131  27 t-inv F
  0.272727  0.000000  0.454545    0.00075131  27 t-inv F
 -0.272727 -0.272727  0.181818    0.00075131  27 t-inv F
 -0.454545 -0.181818 -0.454545    0.00075131  27 t-inv F
  0.272727  0.454545  0.000000    0.00075131  27 t-inv F
  0.181818 -0.272727 -0.272727    0.00075131  27 t-inv F
 -0.454545 -0.454545 -0.181818    0.00075131  27 t-inv F
  0.000000  0.272727  0.454545    0.00075131  27 t-inv F
 -0.272727  0.181818 -0.272727    0.00075131  27 t-inv F
 -0.181818 -0.454545 -0.454545    0.00075131  27 t-inv F
  0.454545  0.000000  0.272727    0.00075131  27 t-inv F
 -0.454545 -0.272727  0.000000    0.00075131  27 t-inv F
  0.000000 -0.454545 -0.272727    0.00075131  27 t-inv F
 -0.272727  0.000000 -0.454545    0.00075131  27 t-inv F
  0.272727  0.272727 -0.181818    0.00075131  27 t-inv F
  0.454545  0.181818  0.454545    0.00075131  27 t-inv F
 -0.272727 -0.454545  0.000000    0.00075131  27 t-inv F
 -0.181818  0.272727  0.272727    0.00075131  27 t-inv F
  0.454545  0.454545  0.181818    0.00075131  27 t-inv F
  0.000000 -0.272727 -0.454545    0.00075131  27 t-inv F
  0.272727 -0.181818  0.272727    0.00075131  27 t-inv F
  0.181818  0.454545  0.454545    0.00075131  27 t-inv F
 -0.454545  0.000000 -0.272727    0.00075131  27 t-inv F
  0.000000 -0.454545  0.272727    0.00075131  28 t-inv F
  0.272727  0.000000 -0.454545    0.00075131  28 t-inv F
 -0.272727 -0.272727 -0.727273    0.00075131  28 t-inv F
  0.454545  0.727273  0.454545    0.00075131  28 t-inv F
  0.272727 -0.454545  0.000000    0.00075131  28 t-inv F
 -0.727273 -0.272727 -0.272727    0.00075131  28 t-inv F
  0.454545  0.454545  0.727273    0.00075131  28 t-inv F
  0.000000  0.272727 -0.454545    0.00075131  28 t-inv F
 -0.272727 -0.727273 -0.272727    0.00075131  28 t-inv F
  0.727273  0.454545  0.454545    0.00075131  28 t-inv F
 -0.454545  0.000000  0.272727    0.00075131  28 t-inv F
  0.454545 -0.272727  0.000000    0.00075131  28 t-inv F
  0.000000  0.454545 -0.272727    0.00075131  28 t-inv F
 -0.272727  0.000000  0.454545    0.00075131  28 t-inv F
  0.272727  0.272727  0.727273    0.00075131  28 t-inv F
 -0.454545 -0.727273 -0.454545    0.00075131  28 t-inv F
 -0.272727  0.454545  0.000000    0.00075131  28 t-inv F
  0.727273  0.272727  0.272727    0.00075131  28 t-inv F
 -0.454545 -0.454545 -0.727273    0.00075131  28 t-inv F
  0.000000 -0.272727  0.454545    0.00075131  28 t-inv F
  0.272727  0.727273  0.272727    0.00075131  28 t-inv F
 -0.727273 -0.454545 -0.454545    0.00075131  28 t-inv F
  0.454545  0.000000 -0.272727    0.00075131  28 t-inv F
  0.000000 -0.363636  0.272727    0.00075131  29 t-inv F
  0.272727  0.000000 -0.363636    0.00075131  29 t-inv F
 -0.272727 -0.272727 -0.636364    0.00075131  29 t-inv F
  0.363636  0.636364  0.363636    0.00075131  29 t-inv F
  0.272727 -0.363636  0.000000    0.00075131  29 t-inv F
 -0.636364 -0.272727 -0.272727    0.00075131  29 t-inv F
  0.363636  0.363636  0.636364    0.00075131  29 t-inv F
  0.000000  0.272727 -0.363636    0.00075131  29 t-inv F
 -0.272727 -0.636364 -0.272727    0.00075131  29 t-inv F
  0.636364  0.363636  0.363636    0.00075131  29 t-inv F
 -0.363636  0.000000  0.272727    0.00075131  29 t-inv F
  0.363636 -0.272727  0.000000    0.00075131  29 t-inv F
  0.000000  0.363636 -0.272727    0.00075131  29 t-inv F
 -0.272727  0.000000  0.363636    0.00075131  29 t-inv F
  0.272727  0.272727  0.636364    0.00075131  29 t-inv F
 -0.363636 -0.636364 -0.363636    0.00075131  29 t-inv F
 -0.272727  0.363636  0.000000    0.00075131  29 t-inv F
  0.636364  0.272727  0.272727    0.00075131  29 t-inv F
 -0.363636 -0.363636 -0.636364    0.00075131  29 t-inv F
  0.000000 -0.272727  0.363636    0.00075131  29 t-inv F
  0.272727  0.636364  0.272727    0.00075131  29 t-inv F
 -0.636364 -0.363636 -0.363636    0.00075131  29 t-inv F
  0.363636  0.000000 -0.272727    0.00075131  29 t-inv F
  0.000000 -0.272727  0.272727    0.00075131  30 t-inv F
  0.272727  0.000000 -0.272727    0.00075131  30 t-inv F
 -0.272727 -0.272727 -0.545455    0.00075131  30 t-inv F
  0.272727  0.545455  0.272727    0.00075131  30 t-inv F
  0.272727 -0.272727  0.000000    0.00075131  30 t-inv F
 -0.545455 -0.272727 -0.272727    0.00075131  30 t-inv F
  0.272727  0.272727  0.545455    0.00075131  30 t-inv F
  0.000000  0.272727 -0.272727    0.00075131  30 t-inv F
 -0.272727 -0.545455 -0.272727    0.00075131  30 t-inv F
  0.545455  0.272727  0.272727    0.00075131  30 t-inv F
 -0.272727  0.000000  0.272727    0.00075131  30 t-inv F
  0.000000  0.363636  0.363636    0.00075131  31 t-inv F
  0.363636  0.000000  0.363636    0.00075131  31 t-inv F
 -0.363636 -0.363636  0.000000    0.00075131  31 t-inv F
 -0.363636  0.000000 -0.363636    0.00075131  31 t-inv F
  0.000000 -0.363636 -0.363636    0.00075131  31 t-inv F
  0.000000  0.454545  0.363636    0.00075131  32 t-inv F
  0.363636  0.000000  0.454545    0.00075131  32 t-inv F
 -0.363636 -0.363636  0.090909    0.00075131  32 t-inv F
 -0.454545 -0.090909 -0.454545    0.00075131  32 t-inv F
  0.363636  0.454545  0.000000    0.00075131  32 t-inv F
  0.090909 -0.363636 -0.363636    0.00075131  32 t-inv F
 -0.454545 -0.454545 -0.090909    0.00075131  32 t-inv F
  0.000000  0.363636  0.454545    0.00075131  32 t-inv F
 -0.363636  0.090909 -0.363636    0.00075131  32 t-inv F
 -0.090909 -0.454545 -0.454545    0.00075131  32 t-inv F
  0.454545  0.000000  0.363636    0.00075131  32 t-inv F
 -0.454545 -0.363636  0.000000    0.00075131  32 t-inv F
  0.000000 -0.454545 -0.363636    0.00075131  32 t-inv F
 -0.363636  0.000000 -0.454545    0.00075131  32 t-inv F
  0.363636  0.363636 -0.090909    0.00075131  32 t-inv F
  0.454545  0.090909  0.454545    0.00075131  32 t-inv F
 -0.363636 -0.454545  0.000000    0.00075131  32 t-inv F
 -0.090909  0.363636  0.363636    0.00075131  32 t-inv F
  0.454545  0.454545  0.090909    0.00075131  32 t-inv F
  0.000000 -0.363636 -0.454545    0.00075131  32 t-inv F
  0.363636 -0.090909  0.363636    0.00075131  32 t-inv F
  0.090909  0.454545  0.454545    0.00075131  32 t-inv F
 -0.454545  0.000000 -0.363636    0.00075131  32 t-inv F
  0.000000 -0.454545  0.363636    0.00075131  33 t-inv F
  0.363636  0.000000 -0.454545    0.00075131  33 t-inv F
 -0.363636 -0.363636 -0.818182    0.00075131  33 t-inv F
  0.454545  0.818182  0.454545    0.00075131  33 t-inv F
  0.363636 -0.454545  0.000000    0.00075131  33 t-inv F
 -0.818182 -0.363636 -0.363636    0.00075131  33 t-inv F
  0.454545  0.454545  0.818182    0.00075131  33 t-inv F
  0.000000  0.363636 -0.454545    0.00075131  33 t-inv F
 -0.363636 -0.818182 -0.363636    0.00075131  33 t-inv F
  0.818182  0.454545  0.454545    0.00075131  33 t-inv F
 -0.454545  0.000000  0.363636    0.00075131  33 t-inv F
  0.454545 -0.363636  0.000000    0.00075131  33 t-inv F
  0.000000  0.454545 -0.363636    0.00075131  33 t-inv F
 -0.363636  0.000000  0.454545    0.00075131  33 t-inv F
  0.363636  0.363636  0.818182    0.00075131  33 t-inv F
 -0.454545 -0.818182 -0.454545    0.00075131  33 t-inv F
 -0.363636  0.454545  0.000000    0.00075131  33 t-inv F
  0.818182  0.363636  0.363636    0.00075131  33 t-inv F
 -0.454545 -0.454545 -0.818182    0.00075131  33 t-inv F
  0.000000 -0.363636  0.454545    0.00075131  33 t-inv F
  0.363636  0.818182  0.363636    0.00075131  33 t-inv F
 -0.818182 -0.454545 -0.454545    0.00075131  33 t-inv F
  0.454545  0.000000 -0.363636    0.00075131  33 t-inv F
  0.000000 -0.363636  0.363636    0.00075131  34 t-inv F
  0.363636  0.000000 -0.363636    0.00075131  34 t-inv F
 -0.363636 -0.363636 -0.727273    0.00075131  34 t-inv F
  0.363636  0.727273  0.363636    0.00075131  34 t-inv F
  0.363636 -0.363636  0.000000    0.00075131  34 t-inv F
 -0.727273 -0.363636 -0.363636    0.00075131  34 t-inv F
  0.363636  0.363636  0.727273    0.00075131  34 t-inv F
  0.000000  0.363636 -0.363636    0.00075131  34 t-inv F
 -0.363636 -0.727273 -0.363636    0.00075131  34 t-inv F
  0.727273  0.363636  0.363636    0.00075131  34 t-inv F
 -0.363636  0.000000  0.363636    0.00075131  34 t-inv F
  0.000000  0.454545  0.454545    0.00075131  35 t-inv F
  0.454545  0.000000  0.454545    0.00075131  35 t-inv F
 -0.454545 -0.454545  0.000000    0.00075131  35 t-inv F
 -0.454545  0.000000 -0.454545    0.00075131  35 t-inv F
  0.000000 -0.454545 -0.454545    0.00075131  35 t-inv F
  0.000000 -0.454545  0.454545    0.00075131  36 t-inv F
  0.454545  0.000000 -0.454545    0.00075131  36 t-inv F
 -0.454545 -0.454545 -0.909091    0.00075131  36 t-inv F
  0.454545  0.909091  0.454545    0.00075131  36 t-inv F
  0.454545 -0.454545  0.000000    0.00075131  36 t-inv F
 -0.909091 -0.454545 -0.454545    0.00075131  36 t-inv F
  0.454545  0.454545  0.909091    0.00075131  36 t-inv F
  0.000000  0.454545 -0.454545    0.00075131  36 t-inv F
 -0.454545 -0.909091 -0.454545    0.00075131  36 t-inv F
  0.909091  0.454545  0.454545    0.00075131  36 t-inv F
 -0.454545  0.000000  0.454545    0.00075131  36 t-inv F
  0.090909  0.272727  0.181818    0.00075131  37 t-inv F
  0.181818  0.090909  0.272727    0.00075131  37 t-inv F
 -0.181818 -0.090909  0.090909    0.00075131  37 t-inv F
 -0.272727 -0.090909 -0.181818    0.00075131  37 t-inv F
 -0.090909  0.181818  0.090909    0.00075131  37 t-inv F
  0.090909  0.181818 -0.090909    0.00075131  37 t-inv F
  0.090909 -0.090909 -0.181818    0.00075131  37 t-inv F
 -0.181818 -0.090909 -0.272727    0.00075131  37 t-inv F
 -0.181818 -0.272727 -0.090909    0.00075131  37 t-inv F
  0.090909 -0.090909  0.181818    0.00075131  37 t-inv F
  0.090909 -0.181818 -0.090909    0.00075131  37 t-inv F
 -0.090909  0.090909  0.181818    0.00075131  37 t-inv F
 -0.181818  0.090909 -0.090909    0.00075131  37 t-inv F
 -0.272727 -0.181818 -0.090909    0.00075131  37 t-inv F
 -0.090909 -0.181818 -0.272727    0.00075131  37 t-inv F
  0.181818  0.090909 -0.090909    0.00075131  37 t-inv F
 -0.090909  0.090909 -0.181818    0.00075131  37 t-inv F
  0.181818 -0.090909  0.090909    0.00075131  37 t-inv F
 -0.090909 -0.181818  0.090909    0.00075131  37 t-inv F
 -0.090909 -0.272727 -0.181818    0.00075131  37 t-inv F
  0.272727  0.090909  0.181818    0.00075131  37 t-inv F
  0.181818  0.272727  0.090909    0.00075131  37 t-inv F
  0.090909  0.181818  0.272727    0.00075131  37 t-inv F
  0.090909  0.363636  0.181818    0.00075131  38 t-inv F
  0.181818  0.090909  0.363636    0.00075131  38 t-inv F
 -0.181818 -0.090909  0.181818    0.00075131  38 t-inv F
 -0.363636 -0.181818 -0.272727    0.00075131  38 t-inv F
 -0.090909  0.272727  0.090909    0.00075131  38 t-inv F
  0.090909  0.272727 -0.090909    0.00075131  38 t-inv F
  0.181818 -0.090909 -0.181818    0.00075131  38 t-inv F
 -0.272727 -0.181818 -0.363636    0.00075131  38 t-inv F
 -0.272727 -0.363636 -0.181818    0.00075131  38 t-inv F
  0.090909 -0.090909  0.272727    0.00075131  38 t-inv F
  0.181818 -0.181818 -0.090909    0.00075131  38 t-inv F
 -0.090909  0.090909  0.272727    0.00075131  38 t-inv F
 -0.181818  0.181818 -0.090909    0.00075131  38 t-inv F
 -0.363636 -0.272727 -0.181818    0.00075131  38 t-inv F
 -0.181818 -0.272727 -0.363636    0.00075131  38 t-inv F
  0.272727  0.090909 -0.090909    0.00075131  38 t-inv F
 -0.090909  0.181818 -0.181818    0.00075131  38 t-inv F
  0.272727 -0.090909  0.090909    0.00075131  38 t-inv F
 -0.090909 -0.181818  0.181818    0.00075131  38 t-inv F
 -0.181818 -0.363636 -0.272727    0.00075131  38 t-inv F
  0.363636  0.090909  0.181818    0.00075131  38 t-inv F
  0.181818  0.363636  0.090909    0.00075131  38 t-inv F
  0.090909  0.181818  0.363636    0.00075131  38 t-inv F
 -0.363636 -0.181818 -0.090909    0.00075131  38 t-inv F
 -0.090909 -0.363636 -0.181818    0.00075131  38 t-inv F
 -0.181818 -0.090909 -0.363636    0.00075131  38 t-inv F
  0.181818  0.090909 -0.181818    0.00075131  38 t-inv F
  0.363636  0.181818  0.272727    0.00075131  38 t-inv F
  0.090909 -0.272727 -0.090909    0.00075131  38 t-inv F
 -0.090909 -0.272727  0.090909    0.00075131  38 t-inv F
 -0.181818  0.090909  0.181818    0.00075131  38 t-inv F
  0.272727  0.181818  0.363636    0.00075131  38 t-inv F
  0.272727  0.363636  0.181818    0.00075131  38 t-inv F
 -0.090909  0.090909 -0.272727    0.00075131  38 t-inv F
 -0.181818  0.181818  0.090909    0.00075131  38 t-inv F
  0.090909 -0.090909 -0.272727    0.00075131  38 t-inv F
  0.181818 -0.181818  0.090909    0.00075131  38 t-inv F
  0.363636  0.272727  0.181818    0.00075131  38 t-inv F
  0.181818  0.272727  0.363636    0.00075131  38 t-inv F
 -0.272727 -0.090909  0.090909    0.00075131  38 t-inv F
  0.090909 -0.181818  0.181818    0.00075131  38 t-inv F
 -0.272727  0.090909 -0.090909    0.00075131  38 t-inv F
  0.090909  0.181818 -0.181818    0.00075131  38 t-inv F
  0.181818  0.363636  0.272727    0.00075131  38 t-inv F
 -0.363636 -0.090909 -0.181818    0.00075131  38 t-inv F
 -0.181818 -0.363636 -0.090909    0.00075131  38 t-inv F
 -0.090909 -0.181818 -0.363636    0.00075131  38 t-inv F
  0.090909  0.454545  0.181818    0.00075131  39 t-inv F
  0.181818  0.090909  0.454545    0.00075131  39 t-inv F
 -0.181818 -0.090909  0.272727    0.00075131  39 t-inv F
 -0.454545 -0.272727 -0.363636    0.00075131  39 t-inv F
 -0.090909  0.363636  0.090909    0.00075131  39 t-inv F
  0.090909  0.363636 -0.090909    0.00075131  39 t-inv F
  0.272727 -0.090909 -0.181818    0.00075131  39 t-inv F
 -0.363636 -0.272727 -0.454545    0.00075131  39 t-inv F
 -0.363636 -0.454545 -0.272727    0.00075131  39 t-inv F
  0.090909 -0.090909  0.363636    0.00075131  39 t-inv F
  0.272727 -0.181818 -0.090909    0.00075131  39 t-inv F
 -0.090909  0.090909  0.363636    0.00075131  39 t-inv F
 -0.181818  0.272727 -0.090909    0.00075131  39 t-inv F
 -0.454545 -0.363636 -0.272727    0.00075131  39 t-inv F
 -0.272727 -0.363636 -0.454545    0.00075131  39 t-inv F
  0.363636  0.090909 -0.090909    0.00075131  39 t-inv F
 -0.090909  0.272727 -0.181818    0.00075131  39 t-inv F
  0.363636 -0.090909  0.090909    0.00075131  39 t-inv F
 -0.090909 -0.181818  0.272727    0.00075131  39 t-inv F
 -0.272727 -0.454545 -0.363636    0.00075131  39 t-inv F
  0.454545  0.090909  0.181818    0.00075131  39 t-inv F
  0.181818  0.454545  0.090909    0.00075131  39 t-inv F
  0.090909  0.181818  0.454545    0.00075131  39 t-inv F
 -0.454545 -0.181818 -0.090909    0.00075131  39 t-inv F
 -0.090909 -0.454545 -0.181818    0.00075131  39 t-inv F
 -0.181818 -0.090909 -0.454545    0.00075131  39 t-inv F
  0.181818  0.090909 -0.272727    0.00075131  39 t-inv F
  0.454545  0.272727  0.363636    0.00075131  39 t-inv F
  0.090909 -0.363636 -0.090909    0.00075131  39 t-inv F
 -0.090909 -0.363636  0.090909    0.00075131  39 t-inv F
 -0.272727  0.090909  0.181818    0.00075131  39 t-inv F
  0.363636  0.272727  0.454545    0.00075131  39 t-inv F
  0.363636  0.454545  0.272727    0.00075131  39 t-inv F
 -0.090909  0.090909 -0.363636    0.00075131  39 t-inv F
 -0.272727  0.181818  0.090909    0.00075131  39 t-inv F
  0.090909 -0.090909 -0.363636    0.00075131  39 t-inv F
  0.181818 -0.272727  0.090909    0.00075131  39 t-inv F
  0.454545  0.363636  0.272727    0.00075131  39 t-inv F
  0.272727  0.363636  0.454545    0.00075131  39 t-inv F
 -0.363636 -0.090909  0.090909    0.00075131  39 t-inv F
  0.090909 -0.272727  0.181818    0.00075131  39 t-inv F
 -0.363636  0.090909 -0.090909    0.00075131  39 t-inv F
  0.090909  0.181818 -0.272727    0.00075131  39 t-inv F
  0.272727  0.454545  0.363636    0.00075131  39 t-inv F
 -0.454545 -0.090909 -0.181818    0.00075131  39 t-inv F
 -0.181818 -0.454545 -0.090909    0.00075131  39 t-inv F
 -0.090909 -0.181818 -0.454545    0.00075131  39 t-inv F
  0.090909 -0.454545  0.181818    0.00075131  40 t-inv F
  0.181818  0.090909 -0.454545    0.00075131  40 t-inv F
 -0.181818 -0.090909 -0.636364    0.00075131  40 t-inv F
  0.454545  0.636364  0.545455    0.00075131  40 t-inv F
 -0.090909 -0.545455  0.090909    0.00075131  40 t-inv F
  0.090909 -0.545455 -0.090909    0.00075131  40 t-inv F
 -0.636364 -0.090909 -0.181818    0.00075131  40 t-inv F
  0.545455  0.636364  0.454545    0.00075131  40 t-inv F
  0.545455  0.454545  0.636364    0.00075131  40 t-inv F
  0.090909 -0.090909 -0.545455    0.00075131  40 t-inv F
 -0.636364 -0.181818 -0.090909    0.00075131  40 t-inv F
 -0.090909  0.090909 -0.545455    0.00075131  40 t-inv F
 -0.181818 -0.636364 -0.090909    0.00075131  40 t-inv F
  0.454545  0.545455  0.636364    0.00075131  40 t-inv F
  0.636364  0.545455  0.454545    0.00075131  40 t-inv F
 -0.545455  0.090909 -0.090909    0.00075131  40 t-inv F
 -0.090909 -0.636364 -0.181818    0.00075131  40 t-inv F
 -0.545455 -0.090909  0.090909    0.00075131  40 t-inv F
 -0.090909 -0.181818 -0.636364    0.00075131  40 t-inv F
  0.636364  0.454545  0.545455    0.00075131  40 t-inv F
 -0.454545  0.090909  0.181818    0.00075131  40 t-inv F
  0.181818 -0.454545  0.090909    0.00075131  40 t-inv F
  0.090909  0.181818 -0.454545    0.00075131  40 t-inv F
  0.454545 -0.181818 -0.090909    0.00075131  40 t-inv F
 -0.090909  0.454545 -0.181818    0.00075131  40 t-inv F
 -0.181818 -0.090909  0.454545    0.00075131  40 t-inv F
  0.181818  0.090909  0.636364    0.00075131  40 t-inv F
 -0.454545 -0.636364 -0.545455    0.00075131  40 t-inv F
  0.090909  0.545455 -0.090909    0.00075131  40 t-inv F
 -0.090909  0.545455  0.090909    0.00075131  40 t-inv F
  0.636364  0.090909  0.181818    0.00075131  40 t-inv F
 -0.545455 -0.636364 -0.454545    0.00075131  40 t-inv F
 -0.545455 -0.454545 -0.636364    0.00075131  40 t-inv F
 -0.090909  0.090909  0.545455    0.00075131  40 t-inv F
  0.636364  0.181818  0.090909    0.00075131  40 t-inv F
  0.090909 -0.090909  0.545455    0.00075131  40 t-inv F
  0.181818  0.636364  0.090909    0.00075131  40 t-inv F
 -0.454545 -0.545455 -0.636364    0.00075131  40 t-inv F
 -0.636364 -0.545455 -0.454545    0.00075131  40 t-inv F
  0.545455 -0.090909  0.090909    0.00075131  40 t-inv F
  0.090909  0.636364  0.181818    0.00075131  40 t-inv F
  0.545455  0.090909 -0.090909    0.00075131  40 t-inv F
  0.090909  0.181818  0.636364    0.00075131  40 t-inv F
 -0.636364 -0.454545 -0.545455    0.00075131  40 t-inv F
  0.454545 -0.090909 -0.181818    0.00075131  40 t-inv F
 -0.181818  0.454545 -0.090909    0.00075131  40 t-inv F
 -0.090909 -0.181818  0.454545    0.00075131  40 t-inv F
  0.090909  0.363636  0.272727    0.00075131  41 t-inv F
  0.272727  0.090909  0.363636    0.00075131  41 t-inv F
 -0.272727 -0.181818  0.090909    0.00075131  41 t-inv F
 -0.363636 -0.090909 -0.272727    0.00075131  41 t-inv F
 -0.090909  0.272727  0.181818    0.00075131  41 t-inv F
  0.181818  0.272727 -0.090909    0.00075131  41 t-inv F
  0.090909 -0.181818 -0.272727    0.00075131  41 t-inv F
 -0.272727 -0.090909 -0.363636    0.00075131  41 t-inv F
 -0.272727 -0.363636 -0.090909    0.00075131  41 t-inv F
  0.181818 -0.090909  0.272727    0.00075131  41 t-inv F
  0.090909 -0.272727 -0.181818    0.00075131  41 t-inv F
 -0.090909  0.181818  0.272727    0.00075131  41 t-inv F
 -0.272727  0.090909 -0.181818    0.00075131  41 t-inv F
 -0.363636 -0.272727 -0.090909    0.00075131  41 t-inv F
 -0.090909 -0.272727 -0.363636    0.00075131  41 t-inv F
  0.272727  0.181818 -0.090909    0.00075131  41 t-inv F
 -0.181818  0.090909 -0.272727    0.00075131  41 t-inv F
  0.272727 -0.090909  0.181818    0.00075131  41 t-inv F
 -0.181818 -0.272727  0.090909    0.00075131  41 t-inv F
 -0.090909 -0.363636 -0.272727    0.00075131  41 t-inv F
  0.363636  0.090909  0.272727    0.00075131  41 t-inv F
  0.272727  0.363636  0.090909    0.00075131  41 t-inv F
  0.090909  0.272727  0.363636    0.00075131  41 t-inv F
  0.090909  0.454545  0.272727    0.00075131  42 t-inv F
  0.272727  0.090909  0.454545    0.00075131  42 t-inv F
 -0.272727 -0.181818  0.181818    0.00075131  42 t-inv F
 -0.454545 -0.181818 -0.363636    0.00075131  42 t-inv F
 -0.090909  0.363636  0.181818    0.00075131  42 t-inv F
  0.181818  0.363636 -0.090909    0.00075131  42 t-inv F
  0.181818 -0.181818 -0.272727    0.00075131  42 t-inv F
 -0.363636 -0.181818 -0.454545    0.00075131  42 t-inv F
 -0.363636 -0.454545 -0.181818    0.00075131  42 t-inv F
  0.181818 -0.090909  0.363636    0.00075131  42 t-inv F
  0.181818 -0.272727 -0.181818    0.00075131  42 t-inv F
 -0.090909  0.181818  0.363636    0.00075131  42 t-inv F
 -0.272727  0.181818 -0.181818    0.00075131  42 t-inv F
 -0.454545 -0.363636 -0.181818    0.00075131  42 t-inv F
 -0.181818 -0.363636 -0.454545    0.00075131  42 t-inv F
  0.363636  0.181818 -0.090909    0.00075131  42 t-inv F
 -0.181818  0.181818 -0.272727    0.00075131  42 t-inv F
  0.363636 -0.090909  0.181818    0.00075131  42 t-inv F
 -0.181818 -0.272727  0.181818    0.00075131  42 t-inv F
 -0.181818 -0.454545 -0.363636    0.00075131  42 t-inv F
  0.454545  0.090909  0.272727    0.00075131  42 t-inv F
  0.272727  0.454545  0.090909    0.00075131  42 t-inv F
  0.090909  0.272727  0.454545    0.00075131  42 t-inv F
 -0.454545 -0.272727 -0.090909    0.00075131  42 t-inv F
 -0.090909 -0.454545 -0.272727    0.00075131  42 t-inv F
 -0.272727 -0.090909 -0.454545    0.00075131  42 t-inv F
  0.272727  0.181818 -0.181818    0.00075131  42 t-inv F
  0.454545  0.181818  0.363636    0.00075131  42 t-inv F
  0.090909 -0.363636 -0.181818    0.00075131  42 t-inv F
 -0.181818 -0.363636  0.090909    0.00075131  42 t-inv F
 -0.181818  0.181818  0.272727    0.00075131  42 t-inv F
  0.363636  0.181818  0.454545    0.00075131  42 t-inv F
  0.363636  0.454545  0.181818    0.00075131  42 t-inv F
 -0.181818  0.090909 -0.363636    0.00075131  42 t-inv F
 -0.181818  0.272727  0.181818    0.00075131  42 t-inv F
  0.090909 -0.181818 -0.363636    0.00075131  42 t-inv F
  0.272727 -0.181818  0.181818    0.00075131  42 t-inv F
  0.454545  0.363636  0.181818    0.00075131  42 t-inv F
  0.181818  0.363636  0.454545    0.00075131  42 t-inv F
 -0.363636 -0.181818  0.090909    0.00075131  42 t-inv F
  0.181818 -0.181818  0.272727    0.00075131  42 t-inv F
 -0.363636  0.090909 -0.181818    0.00075131  42 t-inv F
  0.181818  0.272727 -0.181818    0.00075131  42 t-inv F
  0.181818  0.454545  0.363636    0.00075131  42 t-inv F
 -0.454545 -0.090909 -0.272727    0.00075131  42 t-inv F
 -0.272727 -0.454545 -0.090909    0.00075131  42 t-inv F
 -0.090909 -0.272727 -0.454545    0.00075131  42 t-inv F
  0.090909 -0.454545  0.272727    0.00075131  43 t-inv F
  0.272727  0.090909 -0.454545    0.00075131  43 t-inv F
 -0.272727 -0.181818 -0.727273    0.00075131  43 t-inv F
  0.454545  0.727273  0.545455    0.00075131  43 t-inv F
 -0.090909 -0.545455  0.181818    0.00075131  43 t-inv F
  0.181818 -0.545455 -0.090909    0.00075131  43 t-inv F
 -0.727273 -0.181818 -0.272727    0.00075131  43 t-inv F
  0.545455  0.727273  0.454545    0.00075131  43 t-inv F
  0.545455  0.454545  0.727273    0.00075131  43 t-inv F
  0.181818 -0.090909 -0.545455    0.00075131  43 t-inv F
 -0.727273 -0.272727 -0.181818    0.00075131  43 t-inv F
 -0.090909  0.181818 -0.545455    0.00075131  43 t-inv F
 -0.272727 -0.727273 -0.181818    0.00075131  43 t-inv F
  0.454545  0.545455  0.727273    0.00075131  43 t-inv F
  0.727273  0.545455  0.454545    0.00075131  43 t-inv F
 -0.545455  0.181818 -0.090909    0.00075131  43 t-inv F
 -0.181818 -0.727273 -0.272727    0.00075131  43 t-inv F
 -0.545455 -0.090909  0.181818    0.00075131  43 t-inv F
 -0.181818 -0.272727 -0.727273    0.00075131  43 t-inv F
  0.727273  0.454545  0.545455    0.00075131  43 t-inv F
 -0.454545  0.090909  0.272727    0.00075131  43 t-inv F
  0.272727 -0.454545  0.090909    0.00075131  43 t-inv F
  0.090909  0.272727 -0.454545    0.00075131  43 t-inv F
  0.454545 -0.272727 -0.090909    0.00075131  43 t-inv F
 -0.090909  0.454545 -0.272727    0.00075131  43 t-inv F
 -0.272727 -0.090909  0.454545    0.00075131  43 t-inv F
  0.272727  0.181818  0.727273    0.00075131  43 t-inv F
 -0.454545 -0.727273 -0.545455    0.00075131  43 t-inv F
  0.090909  0.545455 -0.181818    0.00075131  43 t-inv F
 -0.181818  0.545455  0.090909    0.00075131  43 t-inv F
  0.727273  0.181818  0.272727    0.00075131  43 t-inv F
 -0.545455 -0.727273 -0.454545    0.00075131  43 t-inv F
 -0.545455 -0.454545 -0.727273    0.00075131  43 t-inv F
 -0.181818  0.090909  0.545455    0.00075131  43 t-inv F
  0.727273  0.272727  0.181818    0.00075131  43 t-inv F
  0.090909 -0.181818  0.545455    0.00075131  43 t-inv F
  0.272727  0.727273  0.181818    0.00075131  43 t-inv F
 -0.454545 -0.545455 -0.727273    0.00075131  43 t-inv F
 -0.727273 -0.545455 -0.454545    0.00075131  43 t-inv F
  0.545455 -0.181818  0.090909    0.00075131  43 t-inv F
  0.181818  0.727273  0.272727    0.00075131  43 t-inv F
  0.545455  0.090909 -0.181818    0.00075131  43 t-inv F
  0.181818  0.272727  0.727273    0.00075131  43 t-inv F
 -0.727273 -0.454545 -0.545455    0.00075131  43 t-inv F
  0.454545 -0.090909 -0.272727    0.00075131  43 t-inv F
 -0.272727  0.454545 -0.090909    0.00075131  43 t-inv F
 -0.090909 -0.272727  0.454545    0.00075131  43 t-inv F
  0.090909 -0.363636  0.272727    0.00075131  44 t-inv F
  0.272727  0.090909 -0.363636    0.00075131  44 t-inv F
 -0.272727 -0.181818 -0.636364    0.00075131  44 t-inv F
  0.363636  0.636364  0.454545    0.00075131  44 t-inv F
 -0.090909 -0.454545  0.181818    0.00075131  44 t-inv F
  0.181818 -0.454545 -0.090909    0.00075131  44 t-inv F
 -0.636364 -0.181818 -0.272727    0.00075131  44 t-inv F
  0.454545  0.636364  0.363636    0.00075131  44 t-inv F
  0.454545  0.363636  0.636364    0.00075131  44 t-inv F
  0.181818 -0.090909 -0.454545    0.00075131  44 t-inv F
 -0.636364 -0.272727 -0.181818    0.00075131  44 t-inv F
 -0.090909  0.181818 -0.454545    0.00075131  44 t-inv F
 -0.272727 -0.636364 -0.181818    0.00075131  44 t-inv F
  0.363636  0.454545  0.636364    0.00075131  44 t-inv F
  0.636364  0.454545  0.363636    0.00075131  44 t-inv F
 -0.454545  0.181818 -0.090909    0.00075131  44 t-inv F
 -0.181818 -0.636364 -0.272727    0.00075131  44 t-inv F
 -0.454545 -0.090909  0.181818    0.00075131  44 t-inv F
 -0.181818 -0.272727 -0.636364    0.00075131  44 t-inv F
  0.636364  0.363636  0.454545    0.00075131  44 t-inv F
 -0.363636  0.090909  0.272727    0.00075131  44 t-inv F
  0.272727 -0.363636  0.090909    0.00075131  44 t-inv F
  0.090909  0.272727 -0.363636    0.00075131  44 t-inv F
  0.363636 -0.272727 -0.090909    0.00075131  44 t-inv F
 -0.090909  0.363636 -0.272727    0.00075131  44 t-inv F
[...]
      3       4.3354      2.00000
      4       4.3076      2.00000
      5       8.9096      0.00000
      6       9.0003      0.00000
      7      15.3512      0.00000
      8      10.3674      0.00000

 k-point   219 :       0.4868    0.4868    0.5263
  band No.  band energies     occupation 
      1      -5.0304      2.00000
      2      -2.3202      2.00000
      3       4.3068      2.00000
      4       4.1552      2.00000
      5       9.0171      0.00000
      6       9.2836      0.00000
      7      14.9038      0.00000
      8      10.6181      0.00000

 k-point   220 :       0.4803    0.4803    0.5395
  band No.  band energies     occupation 
      1      -5.0056      2.00000
      2      -2.3043      2.00000
      3       4.2303      2.00000
      4       3.9755      2.00000
      5       9.1815      0.00000
      6       9.6803      0.00000
      7      14.4450      0.00000
      8      11.0206      0.00000

 k-point   221 :       0.4737    0.4737    0.5526
  band No.  band energies     occupation 
      1      -4.9707      2.00000
      2      -2.2833      2.00000
      3       4.0666      2.00000
      4       3.8245      2.00000
      5       9.3910      0.00000
      6      10.0449      0.00000
      7      13.9540      0.00000
      8      11.2917      0.00000

 k-point   222 :       0.4671    0.4671    0.5658
  band No.  band energies     occupation 
      1      -4.9257      2.00000
      2      -2.2577      2.00000
      3       3.7793      2.00000
      4       3.7552      2.00000
      5       9.6350      0.00000
      6      10.2837      0.00000
      7      13.5957      0.00000
      8      11.5788      0.00000

 k-point   223 :       0.4605    0.4605    0.5789
  band No.  band energies     occupation 
      1      -4.8707      2.00000
      2      -2.2282      2.00000
      3       3.4119      2.00000
      4       3.7386      2.00000
      5       9.9038      0.00000
      6      10.4032      0.00000
      7      13.4353      0.00000
      8      11.8781      0.00000

 k-point   224 :       0.4539    0.4539    0.5921
  band No.  band energies     occupation 
      1      -4.8058      2.00000
      2      -2.1959      2.00000
      3       3.0354      2.00000
      4       3.7158      2.00000
      5      10.1884      0.00000
      6      10.4242      0.00000
      7      13.3639      0.00000
      8      12.2042      0.00000

 k-point   225 :       0.4474    0.4474    0.6053
  band No.  band energies     occupation 
      1      -4.7313      2.00000
      2      -2.1622      2.00000
      3       2.6756      2.00000
      4       3.6711      2.00000
      5      10.4793      0.00000
      6      10.3518      0.00000
      7      13.3131      0.00000
      8      12.5949      0.00000

 k-point   226 :       0.4408    0.4408    0.6184
  band No.  band energies     occupation 
      1      -4.6473      2.00000
      2      -2.1288      2.00000
      3       2.3362      2.00000
      4       3.6092      2.00000
      5      10.7643      0.00000
      6      10.2945      0.00000
      7      13.2981      0.00000
      8      13.0010      0.00000

 k-point   227 :       0.4342    0.4342    0.6316
  band No.  band energies     occupation 
      1      -4.5543      2.00000
      2      -2.0982      2.00000
      3       2.0180      2.00000
      4       3.5369      2.00000
      5      11.0245      0.00000
      6      10.2532      0.00000
      7      13.2746      0.00000
      8      13.1574      0.00000

 k-point   228 :       0.4276    0.4276    0.6447
  band No.  band energies     occupation 
      1      -4.4525      2.00000
      2      -2.0728      2.00000
      3       1.7237      2.00000
      4       3.4567      2.00000
      5      11.2523      0.00000
      6      10.3152      0.00000
      7      13.2144      0.00000
      8      13.4846      0.00000

 k-point   229 :       0.4211    0.4211    0.6579
  band No.  band energies     occupation 
      1      -4.3428      2.00000
      2      -2.0572      2.00000
      3       1.4559      2.00000
      4       3.3770      2.00000
      5      11.3614      0.00000
      6      10.3942      0.00000
      7      13.1521      0.00000
      8      13.6862      0.00000

 k-point   230 :       0.4145    0.4145    0.6711
  band No.  band energies     occupation 
      1      -4.2260      2.00000
      2      -2.0549      2.00000
      3       1.2198      2.00000
      4       3.2977      2.00000
      5      11.2893      0.00000
      6      10.6995      0.00000
      7      13.0676      0.00000
      8      13.6259      0.00000

 k-point   231 :       0.4079    0.4079    0.6842
  band No.  band energies     occupation 
      1      -4.1032      2.00000
      2      -2.0699      2.00000
      3       1.0205      2.00000
      4       3.2205      2.00000
      5      10.9558      0.00000
      6      11.2581      0.00000
      7      12.9818      0.00000
      8      13.3742      0.00000

 k-point   232 :       0.4013    0.4013    0.6974
  band No.  band energies     occupation 
      1      -3.9771      2.00000
      2      -2.1089      2.00000
      3       0.8634      2.00000
      4       3.1476      2.00000
      5      10.8095      0.00000
      6      11.7472      0.00000
      7      12.7844      0.00000
      8      13.0216      0.00000

 k-point   233 :       0.3947    0.3947    0.7105
  band No.  band energies     occupation 
      1      -3.8490      2.00000
      2      -2.1661      2.00000
      3       0.7513      2.00000
      4       3.0781      2.00000
      5      10.2267      0.00000
      6      12.4984      0.00000
      7      12.7438      0.00000
      8      12.6703      0.00000

 k-point   234 :       0.3882    0.3882    0.7237
  band No.  band energies     occupation 
      1      -3.7243      2.00000
      2      -2.2414      2.00000
      3       0.6861      2.00000
      4       3.0138      2.00000
      5       9.7506      0.00000
      6      13.0775      0.00000
      7      12.7654      0.00000
      8      12.3475      0.00000

 k-point   235 :       0.3816    0.3816    0.7368
  band No.  band energies     occupation 
      1      -3.6100      2.00000
      2      -2.3262      2.00000
      3       0.6662      2.00000
      4       2.9552      2.00000
      5       9.4525      0.00000
      6      13.3926      0.00000
      7      12.8626      0.00000
      8      12.0732      0.00000

 k-point   236 :       0.3750    0.3750    0.7500
  band No.  band energies     occupation 
      1      -3.5174      2.00000
      2      -2.4053      2.00000
      3       0.6875      2.00000
      4       2.9028      2.00000
      5       9.2984      0.00000
      6      13.4722      0.00000
      7      13.0289      0.00000
      8      11.8657      0.00000

 k-point   237 :       0.6250    0.2500    0.6250
  band No.  band energies     occupation 
      1      -3.2470      2.00000
      2      -2.6692      2.00000
      3       0.8873      2.00000
      4       3.1932      2.00000
      5      10.0423      0.00000
      6      13.6644      0.00000
      7      15.0738      0.00000
      8      14.1731      0.00000

 k-point   238 :       0.6184    0.2368    0.6184
  band No.  band energies     occupation 
      1      -3.2033      2.00000
      2      -2.7256      2.00000
      3       0.9548      2.00000
      4       3.1252      2.00000
      5       9.8740      0.00000
      6      13.7797      0.00000
      7      15.3137      0.00000
      8      13.6829      0.00000

 k-point   239 :       0.6118    0.2237    0.6118
  band No.  band energies     occupation 
      1      -3.1698      2.00000
      2      -2.7737      2.00000
      3       1.0325      2.00000
      4       3.0609      2.00000
      5       9.7151      0.00000
      6      13.8750      0.00000
      7      15.9205      0.00000
      8      13.3610      0.00000

 k-point   240 :       0.6053    0.2105    0.6053
  band No.  band energies     occupation 
      1      -3.1453      2.00000
      2      -2.8146      2.00000
      3       1.1200      2.00000
      4       3.0022      2.00000
      5       9.5720      0.00000
      6      14.1507      0.00000
      7      16.1709      0.00000
      8      12.9725      0.00000

 k-point   241 :       0.5987    0.1974    0.5987
  band No.  band energies     occupation 
      1      -3.1286      2.00000
      2      -2.8492      2.00000
      3       1.2153      2.00000
      4       2.9423      2.00000
      5       9.4301      0.00000
      6      14.0928      0.00000
      7      16.4672      0.00000
      8      12.5648      0.00000

 k-point   242 :       0.5921    0.1842    0.5921
  band No.  band energies     occupation 
      1      -3.1184      2.00000
      2      -2.8785      2.00000
      3       1.3182      2.00000
      4       2.8856      2.00000
      5       9.3020      0.00000
      6      13.9334      0.00000
      7      16.7520      0.00000
      8      12.4544      0.00000

 k-point   243 :       0.5855    0.1711    0.5855
  band No.  band energies     occupation 
      1      -3.1133      2.00000
      2      -2.9037      2.00000
      3       1.4288      2.00000
      4       2.8388      2.00000
      5       9.2132      0.00000
      6      14.0635      0.00000
      7      17.0245      0.00000
      8      12.6709      0.00000

 k-point   244 :       0.5789    0.1579    0.5789
  band No.  band energies     occupation 
      1      -3.1123      2.00000
      2      -2.9251      2.00000
      3       1.5431      2.00000
      4       2.7897      2.00000
      5       9.1191      0.00000
      6      13.7309      0.00000
      7      17.3111      0.00000
      8      12.8686      0.00000

 k-point   245 :       0.5724    0.1447    0.5724
  band No.  band energies     occupation 
      1      -3.1145      2.00000
      2      -2.9434      2.00000
      3       1.6606      2.00000
      4       2.7442      2.00000
      5       9.0459      0.00000
      6      13.1196      0.00000
      7      17.5211      0.00000
      8      13.0931      0.00000

 k-point   246 :       0.5658    0.1316    0.5658
  band No.  band energies     occupation 
      1      -3.1189      2.00000
      2      -2.9592      2.00000
      3       1.7796      2.00000
      4       2.7046      2.00000
      5       8.9777      0.00000
      6      12.4773      0.00000
      7      17.8215      0.00000
      8      13.1209      0.00000

 k-point   247 :       0.5592    0.1184    0.5592
  band No.  band energies     occupation 
      1      -3.1247      2.00000
      2      -2.9727      2.00000
      3       1.8977      2.00000
      4       2.6700      2.00000
      5       8.9507      0.00000
      6      11.9412      0.00000
      7      18.0923      0.00000
      8      13.4982      0.00000

 k-point   248 :       0.5526    0.1053    0.5526
  band No.  band energies     occupation 
      1      -3.1313      2.00000
      2      -2.9840      2.00000
      3       2.0126      2.00000
      4       2.6418      2.00000
      5       8.9408      0.00000
      6      11.1365      0.00000
      7      18.3658      0.00000
      8      13.9395      0.00000

 k-point   249 :       0.5461    0.0921    0.5461
  band No.  band energies     occupation 
      1      -3.1383      2.00000
      2      -2.9936      2.00000
      3       2.1217      2.00000
      4       2.6202      2.00000
      5       8.9433      0.00000
      6      10.5914      0.00000
      7      18.8168      0.00000
      8      14.1964      0.00000

 k-point   250 :       0.5395    0.0789    0.5395
  band No.  band energies     occupation 
      1      -3.1452      2.00000
      2      -3.0014      2.00000
      3       2.2224      2.00000
      4       2.6064      2.00000
      5       8.9653      0.00000
      6      10.0673      0.00000
      7      19.1176      0.00000
      8      14.4690      0.00000

 k-point   251 :       0.5329    0.0658    0.5329
  band No.  band energies     occupation 
      1      -3.1515      2.00000
      2      -3.0077      2.00000
      3       2.3122      2.00000
      4       2.5999      2.00000
      5       8.9960      0.00000
      6       9.6035      0.00000
      7      19.4104      0.00000
      8      14.7384      0.00000

 k-point   252 :       0.5263    0.0526    0.5263
  band No.  band energies     occupation 
      1      -3.1573      2.00000
      2      -3.0122      2.00000
      3       2.3896      2.00000
      4       2.6001      2.00000
      5       9.0085      0.00000
      6       8.8438      0.00000
      7      19.6773      0.00000
      8      15.0426      0.00000

 k-point   253 :       0.5197    0.0395    0.5197
  band No.  band energies     occupation 
      1      -3.1619      2.00000
      2      -3.0150      2.00000
      3       2.4541      2.00000
      4       2.6072      2.00000
      5       9.0300      0.00000
      6       8.5222      0.00000
      7      19.9629      0.00000
      8      15.2990      0.00000

 k-point   254 :       0.5132    0.0263    0.5132
  band No.  band energies     occupation 
      1      -3.1655      2.00000
      2      -3.0163      2.00000
      3       2.5053      2.00000
      4       2.6179      2.00000
      5       9.0257      0.00000
      6       8.2863      0.00000
      7      20.2427      0.00000
      8      15.4532      0.00000

 k-point   255 :       0.5066    0.0132    0.5066
  band No.  band energies     occupation 
      1      -3.1678      2.00000
      2      -3.0158      2.00000
      3       2.5439      2.00000
      4       2.6288      2.00000
      5       8.9882      0.00000
      6       8.1256      0.00000
      7      20.4998      0.00000
      8      15.5339      0.00000

 k-point   256 :       0.5000    0.0000    0.5000
  band No.  band energies     occupation 
      1      -3.1689      2.00000
      2      -3.0138      2.00000
      3       2.5711      2.00000
      4       2.6365      2.00000
      5       8.9272      0.00000
      6       8.0341      0.00000
      7      20.7064      0.00000
      8      15.5831      0.00000


--------------------------------------------------------------------------------------------------------


 soft charge-density along one line, spin component           1
         0         1         2         3         4         5         6         7         8         9
 total charge-density along one line
 
 pseudopotential strength for first ion, spin component:           1
 17.852  24.909   0.000   0.000   0.000   0.000   0.000   0.000
 24.909  34.758   0.000   0.000   0.000   0.000   0.000   0.000
  0.000   0.000   4.076  -0.000  -0.000   7.599  -0.000  -0.000
  0.000   0.000  -0.000   4.076  -0.000  -0.000   7.599  -0.000
  0.000   0.000  -0.000  -0.000   4.076  -0.000  -0.000   7.599
  0.000   0.000   7.599  -0.000  -0.000  14.175  -0.000  -0.000
  0.000   0.000  -0.000   7.599  -0.000  -0.000  14.175  -0.000
  0.000   0.000  -0.000  -0.000   7.599  -0.000  -0.000  14.175
 total augmentation occupancy for first ion, spin component:           1
 11.004  -5.163  -0.000  -0.000   0.000   0.000   0.000  -0.000
 -5.163   2.474   0.000   0.000  -0.000  -0.000  -0.000   0.000
 -0.000   0.000   3.939   0.000  -0.000  -1.050  -0.000   0.000
 -0.000   0.000   0.000   3.939  -0.000  -0.000  -1.050  -0.000
  0.000  -0.000  -0.000  -0.000   3.939   0.000   0.000  -1.050
  0.000  -0.000  -1.050  -0.000   0.000   0.286   0.000  -0.000
  0.000  -0.000  -0.000  -1.050   0.000   0.000   0.286  -0.000
 -0.000   0.000   0.000  -0.000  -1.050  -0.000  -0.000   0.286


------------------------ aborting loop because EDIFF is reached ----------------------------------------


 


 total charge     
 
# of ion     s       p       d       tot
----------------------------------------
  1        0.760   0.965   0.000   1.725
  2        0.760   0.965   0.000   1.725
------------------------------------------------
tot        1.521   1.930   0.000   3.450
 
    FORLOC:  cpu time    0.0003: real time    0.0003
    FORHF :  cpu time   40.9117: real time   40.9211
    FORNL :  cpu time    0.0458: real time    0.0458
    FORCOR:  cpu time    0.2644: real time    0.2645
    OFIELD:  cpu time    0.0001: real time    0.0001

 VOLUME and BASIS-vectors are now :
 -----------------------------------------------------------------------------
  energy-cutoff  :      500.00
  volume of cell :       39.94
      direct lattice vectors                 reciprocal lattice vectors
     2.713087246  2.713087246  0.000000000     0.184291899  0.184291899 -0.184291899
     0.000000000  2.713087246  2.713087246    -0.184291899  0.184291899  0.184291899
     2.713087246  0.000000000  2.713087246     0.184291899 -0.184291899  0.184291899

  length of vectors
     3.836884779  3.836884779  3.836884779     0.319202932  0.319202932  0.319202932


 FORCES acting on ions:
    Electron-Ion                     Ewald-Force                    Non-Local-Force
 -----------------------------------------------------------------------------------------------
   0.651E-07 0.240E-07 0.518E-07   -.437E-15 0.205E-13 0.828E-15   0.106E-16 0.394E-17 -.102E-16
   -.194E-07 -.263E-07 -.990E-07   0.106E-14 -.200E-13 -.998E-15   -.158E-16 -.269E-17 0.258E-16
 -----------------------------------------------------------------------------------------------
   0.478E-07 -.249E-08 -.493E-07   0.626E-15 0.499E-15 -.170E-15   -.518E-17 0.126E-17 0.156E-16
 
 
 POSITION                                       TOTAL-FORCE (eV/Angst)
 -----------------------------------------------------------------------------------
      0.00000      0.00000      0.00000         0.000000      0.000000      0.000000
      1.35654      1.35654      1.35654        -0.000000     -0.000000     -0.000000
 -----------------------------------------------------------------------------------
    total drift:                                0.000000     -0.000000     -0.000000


--------------------------------------------------------------------------------------------------------



  FREE ENERGIE OF THE ION-ELECTRON SYSTEM (eV)
  ---------------------------------------------------
  free  energy   TOTEN  =       -12.55622572 eV

  energy  without entropy=      -12.55622572  energy(sigma->0) =      -12.55622572
 


--------------------------------------------------------------------------------------------------------


    POTLOK:  cpu time    0.2630: real time    0.2632


--------------------------------------------------------------------------------------------------------


     LOOP+:  cpu time 1088.5547: real time 1089.6519
    4ORBIT:  cpu time    0.0000: real time    0.0000
 


 total charge     
 
# of ion     s       p       d       tot
----------------------------------------
  1        0.760   0.965   0.000   1.725
  2        0.760   0.965   0.000   1.725
------------------------------------------------
tot        1.521   1.930   0.000   3.450
 

 total amount of memory used by VASP on root node    39460. kBytes
========================================================================

   base      :      30000. kBytes
   nonl-proj :       3151. kBytes
   fftplans  :        815. kBytes
   grid      :        403. kBytes
   one-center:          3. kBytes
   HF        :          4. kBytes
   nonlr-proj:        170. kBytes
   wavefun   :       4914. kBytes
 
  
  
 General timing and accounting informations for this job:
 ========================================================
  
                  Total CPU time used (sec):     1149.438
                            User time (sec):     1147.294
                          System time (sec):        2.144
                         Elapsed time (sec):     1151.249
  
                   Maximum memory used (kb):      228840.
                   Average memory used (kb):           0.
  
                          Minor page faults:       116678
                          Major page faults:            0
                 Voluntary context switches:        14787
