<?xml version="1.0" encoding="ISO-8859-1"?>
<modeling>
 <generator>
  <i name="program" type="string">vasp </i>
  <i name="version" type="string">5.4.1  </i>
  <i name="subversion" type="string">05Feb16 (build Oct 07 2016 17:26:14) complex                          parallel </i>
  <i name="platform" type="string">GRP7IFC17AVX2 </i>
  <i name="date" type="string">2017 09 25 </i>
  <i name="time" type="string">21:35:08 </i>
 </generator>
 <incar>
  <i type="string" name="PREC">accurate</i>
  <i type="string" name="ALGO">ALL</i>
  <i type="logical" name="ADDGRID"> T  </i>
  <i type="int" name="NELMIN">    10</i>
  <i type="int" name="IBRION">    -1</i>
  <i name="EDIFF">      0.00001000</i>
  <i type="int" name="NSW">     0</i>
  <i name="ENCUT">    500.00000000</i>
  <i type="logical" name="LREAL"> F  </i>
  <i name="TIME">      0.30000000</i>
  <i type="int" name="ISMEAR">     0</i>
  <i name="SIGMA">      0.01000000</i>
  <i type="logical" name="LWAVE"> F  </i>
  <i type="logical" name="LCHARG"> F  </i>
  <i type="logical" name="LORBIT"> F  </i>
  <i type="logical" name="LASPH"> T  </i>
  <v type="int" name="KPOINT_BSE">    -1     0     0     0</v>
  <i type="logical" name="LHFCALC"> T  </i>
  <i type="int" name="LMAXFOCK">     4</i>
  <i name="HFSCREEN">      0.20700000</i>
  <i name="AEXX">      0.25000000</i>
  <i type="string" name="PRECFOCK">fast</i>
  <i type="logical" name="LASPH"> T  </i>
 </incar>
 <kpoints>
  <varray name="kpointlist" >
   <v>       0.00000000       0.00000000       0.00000000 </v>
   <v>       0.09090909       0.00000000       0.00000000 </v>
   <v>       0.18181818       0.00000000       0.00000000 </v>
   <v>       0.27272727       0.00000000       0.00000000 </v>
   <v>       0.36363636       0.00000000       0.00000000 </v>
   <v>       0.45454545       0.00000000       0.00000000 </v>
   <v>       0.09090909       0.09090909       0.00000000 </v>
   <v>       0.18181818       0.09090909       0.00000000 </v>
   <v>       0.27272727       0.09090909       0.00000000 </v>
   <v>       0.36363636       0.09090909       0.00000000 </v>
   <v>       0.45454545       0.09090909       0.00000000 </v>
   <v>      -0.45454545       0.09090909       0.00000000 </v>
   <v>      -0.36363636       0.09090909       0.00000000 </v>
   <v>      -0.27272727       0.09090909       0.00000000 </v>
   <v>      -0.18181818       0.09090909       0.00000000 </v>
   <v>      -0.09090909       0.09090909       0.00000000 </v>
   <v>       0.18181818       0.18181818       0.00000000 </v>
   <v>       0.27272727       0.18181818       0.00000000 </v>
   <v>       0.36363636       0.18181818       0.00000000 </v>
   <v>       0.45454545       0.18181818       0.00000000 </v>
   <v>      -0.45454545       0.18181818       0.00000000 </v>
   <v>      -0.36363636       0.18181818       0.00000000 </v>
   <v>      -0.27272727       0.18181818       0.00000000 </v>
   <v>      -0.18181818       0.18181818       0.00000000 </v>
   <v>       0.27272727       0.27272727       0.00000000 </v>
   <v>       0.36363636       0.27272727       0.00000000 </v>
   <v>       0.45454545       0.27272727       0.00000000 </v>
   <v>      -0.45454545       0.27272727       0.00000000 </v>
   <v>      -0.36363636       0.27272727       0.00000000 </v>
   <v>      -0.27272727       0.27272727       0.00000000 </v>
   <v>       0.36363636       0.36363636       0.00000000 </v>
   <v>       0.45454545       0.36363636       0.00000000 </v>
   <v>      -0.45454545       0.36363636       0.00000000 </v>
   <v>      -0.36363636       0.36363636       0.00000000 </v>
   <v>       0.45454545       0.45454545       0.00000000 </v>
   <v>      -0.45454545       0.45454545       0.00000000 </v>
   <v>       0.27272727       0.18181818       0.09090909 </v>
   <v>       0.36363636       0.18181818       0.09090909 </v>
   <v>       0.45454545       0.18181818       0.09090909 </v>
   <v>      -0.45454545       0.18181818       0.09090909 </v>
   <v>       0.36363636       0.27272727       0.09090909 </v>
   <v>       0.45454545       0.27272727       0.09090909 </v>
   <v>      -0.45454545       0.27272727       0.09090909 </v>
   <v>      -0.36363636       0.27272727       0.09090909 </v>
   <v>      -0.27272727       0.27272727       0.09090909 </v>
   <v>      -0.18181818       0.27272727       0.09090909 </v>
   <v>       0.45454545       0.36363636       0.09090909 </v>
   <v>      -0.45454545       0.36363636       0.09090909 </v>
   <v>      -0.36363636       0.36363636       0.09090909 </v>
   <v>      -0.27272727       0.36363636       0.09090909 </v>
   <v>      -0.45454545       0.45454545       0.09090909 </v>
   <v>      -0.36363636       0.45454545       0.09090909 </v>
   <v>      -0.45454545       0.36363636       0.18181818 </v>
   <v>      -0.36363636       0.36363636       0.18181818 </v>
   <v>      -0.36363636       0.45454545       0.18181818 </v>
   <v>      -0.27272727       0.45454545       0.18181818 </v>
   <v>       0.00000000       0.00000000       0.00000000 </v>
   <v>       0.02631579       0.00000000       0.02631579 </v>
   <v>       0.05263158       0.00000000       0.05263158 </v>
   <v>       0.07894737       0.00000000       0.07894737 </v>
   <v>       0.10526316       0.00000000       0.10526316 </v>
   <v>       0.13157895       0.00000000       0.13157895 </v>
   <v>       0.15789474       0.00000000       0.15789474 </v>
   <v>       0.18421053       0.00000000       0.18421053 </v>
   <v>       0.21052632       0.00000000       0.21052632 </v>
   <v>       0.23684211       0.00000000       0.23684211 </v>
   <v>       0.26315789       0.00000000       0.26315789 </v>
   <v>       0.28947368       0.00000000       0.28947368 </v>
   <v>       0.31578947       0.00000000       0.31578947 </v>
   <v>       0.34210526       0.00000000       0.34210526 </v>
   <v>       0.36842105       0.00000000       0.36842105 </v>
   <v>       0.39473684       0.00000000       0.39473684 </v>
   <v>       0.42105263       0.00000000       0.42105263 </v>
   <v>       0.44736842       0.00000000       0.44736842 </v>
   <v>       0.47368421       0.00000000       0.47368421 </v>
   <v>       0.50000000       0.00000000       0.50000000 </v>
   <v>       0.50000000       0.00000000       0.50000000 </v>
   <v>       0.50000000       0.01315789       0.51315789 </v>
   <v>       0.50000000       0.02631579       0.52631579 </v>
   <v>       0.50000000       0.03947368       0.53947368 </v>
   <v>       0.50000000       0.05263158       0.55263158 </v>
   <v>       0.50000000       0.06578947       0.56578947 </v>
   <v>       0.50000000       0.07894737       0.57894737 </v>
   <v>       0.50000000       0.09210526       0.59210526 </v>
   <v>       0.50000000       0.10526316       0.60526316 </v>
   <v>       0.50000000       0.11842105       0.61842105 </v>
   <v>       0.50000000       0.13157895       0.63157895 </v>
   <v>       0.50000000       0.14473684       0.64473684 </v>
   <v>       0.50000000       0.15789474       0.65789474 </v>
   <v>       0.50000000       0.17105263       0.67105263 </v>
   <v>       0.50000000       0.18421053       0.68421053 </v>
   <v>       0.50000000       0.19736842       0.69736842 </v>
   <v>       0.50000000       0.21052632       0.71052632 </v>
   <v>       0.50000000       0.22368421       0.72368421 </v>
   <v>       0.50000000       0.23684211       0.73684211 </v>
   <v>       0.50000000       0.25000000       0.75000000 </v>
   <v>       0.50000000       0.25000000       0.75000000 </v>
   <v>       0.49342105       0.25657895       0.75000000 </v>
   <v>       0.48684211       0.26315789       0.75000000 </v>
   <v>       0.48026316       0.26973684       0.75000000 </v>
   <v>       0.47368421       0.27631579       0.75000000 </v>
   <v>       0.46710526       0.28289474       0.75000000 </v>
   <v>       0.46052632       0.28947368       0.75000000 </v>
   <v>       0.45394737       0.29605263       0.75000000 </v>
   <v>       0.44736842       0.30263158       0.75000000 </v>
   <v>       0.44078947       0.30921053       0.75000000 </v>
   <v>       0.43421053       0.31578947       0.75000000 </v>
   <v>       0.42763158       0.32236842       0.75000000 </v>
   <v>       0.42105263       0.32894737       0.75000000 </v>
   <v>       0.41447368       0.33552632       0.75000000 </v>
   <v>       0.40789474       0.34210526       0.75000000 </v>
   <v>       0.40131579       0.34868421       0.75000000 </v>
   <v>       0.39473684       0.35526316       0.75000000 </v>
   <v>       0.38815789       0.36184211       0.75000000 </v>
   <v>       0.38157895       0.36842105       0.75000000 </v>
   <v>       0.37500000       0.37500000       0.75000000 </v>
   <v>       0.37500000       0.37500000       0.75000000 </v>
   <v>       0.35526316       0.35526316       0.71052632 </v>
   <v>       0.33552632       0.33552632       0.67105263 </v>
   <v>       0.31578947       0.31578947       0.63157895 </v>
   <v>       0.29605263       0.29605263       0.59210526 </v>
   <v>       0.27631579       0.27631579       0.55263158 </v>
   <v>       0.25657895       0.25657895       0.51315789 </v>
   <v>       0.23684211       0.23684211       0.47368421 </v>
   <v>       0.21710526       0.21710526       0.43421053 </v>
   <v>       0.19736842       0.19736842       0.39473684 </v>
   <v>       0.17763158       0.17763158       0.35526316 </v>
   <v>       0.15789474       0.15789474       0.31578947 </v>
   <v>       0.13815789       0.13815789       0.27631579 </v>
   <v>       0.11842105       0.11842105       0.23684211 </v>
   <v>       0.09868421       0.09868421       0.19736842 </v>
   <v>       0.07894737       0.07894737       0.15789474 </v>
   <v>       0.05921053       0.05921053       0.11842105 </v>
   <v>       0.03947368       0.03947368       0.07894737 </v>
   <v>       0.01973684       0.01973684       0.03947368 </v>
   <v>       0.00000000       0.00000000       0.00000000 </v>
   <v>       0.00000000       0.00000000       0.00000000 </v>
   <v>       0.02631579       0.02631579       0.02631579 </v>
   <v>       0.05263158       0.05263158       0.05263158 </v>
   <v>       0.07894737       0.07894737       0.07894737 </v>
   <v>       0.10526316       0.10526316       0.10526316 </v>
   <v>       0.13157895       0.13157895       0.13157895 </v>
   <v>       0.15789474       0.15789474       0.15789474 </v>
   <v>       0.18421053       0.18421053       0.18421053 </v>
   <v>       0.21052632       0.21052632       0.21052632 </v>
   <v>       0.23684211       0.23684211       0.23684211 </v>
   <v>       0.26315789       0.26315789       0.26315789 </v>
   <v>       0.28947368       0.28947368       0.28947368 </v>
   <v>       0.31578947       0.31578947       0.31578947 </v>
   <v>       0.34210526       0.34210526       0.34210526 </v>
   <v>       0.36842105       0.36842105       0.36842105 </v>
   <v>       0.39473684       0.39473684       0.39473684 </v>
   <v>       0.42105263       0.42105263       0.42105263 </v>
   <v>       0.44736842       0.44736842       0.44736842 </v>
   <v>       0.47368421       0.47368421       0.47368421 </v>
   <v>       0.50000000       0.50000000       0.50000000 </v>
   <v>       0.50000000       0.50000000       0.50000000 </v>
   <v>       0.50657895       0.48684211       0.50657895 </v>
   <v>       0.51315789       0.47368421       0.51315789 </v>
   <v>       0.51973684       0.46052632       0.51973684 </v>
   <v>       0.52631579       0.44736842       0.52631579 </v>
   <v>       0.53289474       0.43421053       0.53289474 </v>
   <v>       0.53947368       0.42105263       0.53947368 </v>
   <v>       0.54605263       0.40789474       0.54605263 </v>
   <v>       0.55263158       0.39473684       0.55263158 </v>
   <v>       0.55921053       0.38157895       0.55921053 </v>
   <v>       0.56578947       0.36842105       0.56578947 </v>
   <v>       0.57236842       0.35526316       0.57236842 </v>
   <v>       0.57894737       0.34210526       0.57894737 </v>
   <v>       0.58552632       0.32894737       0.58552632 </v>
   <v>       0.59210526       0.31578947       0.59210526 </v>
   <v>       0.59868421       0.30263158       0.59868421 </v>
   <v>       0.60526316       0.28947368       0.60526316 </v>
   <v>       0.61184211       0.27631579       0.61184211 </v>
   <v>       0.61842105       0.26315789       0.61842105 </v>
   <v>       0.62500000       0.25000000       0.62500000 </v>
   <v>       0.62500000       0.25000000       0.62500000 </v>
   <v>       0.61842105       0.25000000       0.63157895 </v>
   <v>       0.61184211       0.25000000       0.63815789 </v>
   <v>       0.60526316       0.25000000       0.64473684 </v>
   <v>       0.59868421       0.25000000       0.65131579 </v>
   <v>       0.59210526       0.25000000       0.65789474 </v>
   <v>       0.58552632       0.25000000       0.66447368 </v>
   <v>       0.57894737       0.25000000       0.67105263 </v>
   <v>       0.57236842       0.25000000       0.67763158 </v>
   <v>       0.56578947       0.25000000       0.68421053 </v>
   <v>       0.55921053       0.25000000       0.69078947 </v>
   <v>       0.55263158       0.25000000       0.69736842 </v>
   <v>       0.54605263       0.25000000       0.70394737 </v>
   <v>       0.53947368       0.25000000       0.71052632 </v>
   <v>       0.53289474       0.25000000       0.71710526 </v>
   <v>       0.52631579       0.25000000       0.72368421 </v>
   <v>       0.51973684       0.25000000       0.73026316 </v>
   <v>       0.51315789       0.25000000       0.73684211 </v>
   <v>       0.50657895       0.25000000       0.74342105 </v>
   <v>       0.50000000       0.25000000       0.75000000 </v>
   <v>       0.50000000       0.25000000       0.75000000 </v>
   <v>       0.50000000       0.26315789       0.73684211 </v>
   <v>       0.50000000       0.27631579       0.72368421 </v>
   <v>       0.50000000       0.28947368       0.71052632 </v>
   <v>       0.50000000       0.30263158       0.69736842 </v>
   <v>       0.50000000       0.31578947       0.68421053 </v>
   <v>       0.50000000       0.32894737       0.67105263 </v>
   <v>       0.50000000       0.34210526       0.65789474 </v>
   <v>       0.50000000       0.35526316       0.64473684 </v>
   <v>       0.50000000       0.36842105       0.63157895 </v>
   <v>       0.50000000       0.38157895       0.61842105 </v>
   <v>       0.50000000       0.39473684       0.60526316 </v>
   <v>       0.50000000       0.40789474       0.59210526 </v>
   <v>       0.50000000       0.42105263       0.57894737 </v>
   <v>       0.50000000       0.43421053       0.56578947 </v>
   <v>       0.50000000       0.44736842       0.55263158 </v>
   <v>       0.50000000       0.46052632       0.53947368 </v>
   <v>       0.50000000       0.47368421       0.52631579 </v>
   <v>       0.50000000       0.48684211       0.51315789 </v>
   <v>       0.50000000       0.50000000       0.50000000 </v>
   <v>       0.50000000       0.50000000       0.50000000 </v>
   <v>       0.49342105       0.49342105       0.51315789 </v>
   <v>       0.48684211       0.48684211       0.52631579 </v>
   <v>       0.48026316       0.48026316       0.53947368 </v>
   <v>       0.47368421       0.47368421       0.55263158 </v>
   <v>       0.46710526       0.46710526       0.56578947 </v>
   <v>       0.46052632       0.46052632       0.57894737 </v>
   <v>       0.45394737       0.45394737       0.59210526 </v>
   <v>       0.44736842       0.44736842       0.60526316 </v>
   <v>       0.44078947       0.44078947       0.61842105 </v>
   <v>       0.43421053       0.43421053       0.63157895 </v>
   <v>       0.42763158       0.42763158       0.64473684 </v>
   <v>       0.42105263       0.42105263       0.65789474 </v>
   <v>       0.41447368       0.41447368       0.67105263 </v>
   <v>       0.40789474       0.40789474       0.68421053 </v>
   <v>       0.40131579       0.40131579       0.69736842 </v>
   <v>       0.39473684       0.39473684       0.71052632 </v>
   <v>       0.38815789       0.38815789       0.72368421 </v>
   <v>       0.38157895       0.38157895       0.73684211 </v>
   <v>       0.37500000       0.37500000       0.75000000 </v>
   <v>       0.62500000       0.25000000       0.62500000 </v>
   <v>       0.61842105       0.23684211       0.61842105 </v>
   <v>       0.61184211       0.22368421       0.61184211 </v>
   <v>       0.60526316       0.21052632       0.60526316 </v>
   <v>       0.59868421       0.19736842       0.59868421 </v>
   <v>       0.59210526       0.18421053       0.59210526 </v>
   <v>       0.58552632       0.17105263       0.58552632 </v>
   <v>       0.57894737       0.15789474       0.57894737 </v>
   <v>       0.57236842       0.14473684       0.57236842 </v>
   <v>       0.56578947       0.13157895       0.56578947 </v>
   <v>       0.55921053       0.11842105       0.55921053 </v>
   <v>       0.55263158       0.10526316       0.55263158 </v>
   <v>       0.54605263       0.09210526       0.54605263 </v>
   <v>       0.53947368       0.07894737       0.53947368 </v>
   <v>       0.53289474       0.06578947       0.53289474 </v>
   <v>       0.52631579       0.05263158       0.52631579 </v>
   <v>       0.51973684       0.03947368       0.51973684 </v>
   <v>       0.51315789       0.02631579       0.51315789 </v>
   <v>       0.50657895       0.01315789       0.50657895 </v>
   <v>       0.50000000       0.00000000       0.50000000 </v>
  </varray>
  <varray name="weights" >
   <v>       0.00075131 </v>
   <v>       0.00601052 </v>
   <v>       0.00601052 </v>
   <v>       0.00601052 </v>
   <v>       0.00601052 </v>
   <v>       0.00601052 </v>
   <v>       0.00450789 </v>
   <v>       0.01803156 </v>
   <v>       0.01803156 </v>
   <v>       0.01803156 </v>
   <v>       0.01803156 </v>
   <v>       0.01803156 </v>
   <v>       0.01803156 </v>
   <v>       0.01803156 </v>
   <v>       0.01803156 </v>
   <v>       0.00901578 </v>
   <v>       0.00450789 </v>
   <v>       0.01803156 </v>
   <v>       0.01803156 </v>
   <v>       0.01803156 </v>
   <v>       0.01803156 </v>
   <v>       0.01803156 </v>
   <v>       0.01803156 </v>
   <v>       0.00901578 </v>
   <v>       0.00450789 </v>
   <v>       0.01803156 </v>
   <v>       0.01803156 </v>
   <v>       0.01803156 </v>
   <v>       0.01803156 </v>
   <v>       0.00901578 </v>
   <v>       0.00450789 </v>
   <v>       0.01803156 </v>
   <v>       0.01803156 </v>
   <v>       0.00901578 </v>
   <v>       0.00450789 </v>
   <v>       0.00901578 </v>
   <v>       0.01803156 </v>
   <v>       0.03606311 </v>
   <v>       0.03606311 </v>
   <v>       0.03606311 </v>
   <v>       0.01803156 </v>
   <v>       0.03606311 </v>
   <v>       0.03606311 </v>
   <v>       0.03606311 </v>
   <v>       0.03606311 </v>
   <v>       0.01803156 </v>
   <v>       0.01803156 </v>
   <v>       0.03606311 </v>
   <v>       0.03606311 </v>
   <v>       0.01803156 </v>
   <v>       0.01803156 </v>
   <v>       0.01803156 </v>
   <v>       0.01803156 </v>
   <v>       0.03606311 </v>
   <v>       0.01803156 </v>
   <v>       0.01803156 </v>
   <v>       0.00000000 </v>
   <v>       0.00000000 </v>
   <v>       0.00000000 </v>
   <v>       0.00000000 </v>
   <v>       0.00000000 </v>
   <v>       0.00000000 </v>
   <v>       0.00000000 </v>
   <v>       0.00000000 </v>
   <v>       0.00000000 </v>
   <v>       0.00000000 </v>
   <v>       0.00000000 </v>
   <v>       0.00000000 </v>
   <v>       0.00000000 </v>
   <v>       0.00000000 </v>
   <v>       0.00000000 </v>
   <v>       0.00000000 </v>
   <v>       0.00000000 </v>
   <v>       0.00000000 </v>
   <v>       0.00000000 </v>
   <v>       0.00000000 </v>
   <v>       0.00000000 </v>
   <v>       0.00000000 </v>
   <v>       0.00000000 </v>
   <v>       0.00000000 </v>
   <v>       0.00000000 </v>
   <v>       0.00000000 </v>
   <v>       0.00000000 </v>
   <v>       0.00000000 </v>
   <v>       0.00000000 </v>
   <v>       0.00000000 </v>
   <v>       0.00000000 </v>
   <v>       0.00000000 </v>
   <v>       0.00000000 </v>
   <v>       0.00000000 </v>
   <v>       0.00000000 </v>
   <v>       0.00000000 </v>
   <v>       0.00000000 </v>
   <v>       0.00000000 </v>
   <v>       0.00000000 </v>
   <v>       0.00000000 </v>
   <v>       0.00000000 </v>
   <v>       0.00000000 </v>
   <v>       0.00000000 </v>
   <v>       0.00000000 </v>
   <v>       0.00000000 </v>
   <v>       0.00000000 </v>
   <v>       0.00000000 </v>
   <v>       0.00000000 </v>
   <v>       0.00000000 </v>
   <v>       0.00000000 </v>
   <v>       0.00000000 </v>
   <v>       0.00000000 </v>
   <v>       0.00000000 </v>
   <v>       0.00000000 </v>
   <v>       0.00000000 </v>
   <v>       0.00000000 </v>
   <v>       0.00000000 </v>
   <v>       0.00000000 </v>
   <v>       0.00000000 </v>
   <v>       0.00000000 </v>
   <v>       0.00000000 </v>
   <v>       0.00000000 </v>
   <v>       0.00000000 </v>
   <v>       0.00000000 </v>
   <v>       0.00000000 </v>
   <v>       0.00000000 </v>
   <v>       0.00000000 </v>
   <v>       0.00000000 </v>
   <v>       0.00000000 </v>
   <v>       0.00000000 </v>
   <v>       0.00000000 </v>
   <v>       0.00000000 </v>
   <v>       0.00000000 </v>
   <v>       0.00000000 </v>
   <v>       0.00000000 </v>
   <v>       0.00000000 </v>
   <v>       0.00000000 </v>
   <v>       0.00000000 </v>
   <v>       0.00000000 </v>
   <v>       0.00000000 </v>
   <v>       0.00000000 </v>
   <v>       0.00000000 </v>
   <v>       0.00000000 </v>
   <v>       0.00000000 </v>
   <v>       0.00000000 </v>
   <v>       0.00000000 </v>
   <v>       0.00000000 </v>
   <v>       0.00000000 </v>
   <v>       0.00000000 </v>
   <v>       0.00000000 </v>
   <v>       0.00000000 </v>
   <v>       0.00000000 </v>
   <v>       0.00000000 </v>
   <v>       0.00000000 </v>
   <v>       0.00000000 </v>
   <v>       0.00000000 </v>
   <v>       0.00000000 </v>
   <v>       0.00000000 </v>
   <v>       0.00000000 </v>
   <v>       0.00000000 </v>
   <v>       0.00000000 </v>
   <v>       0.00000000 </v>
   <v>       0.00000000 </v>
   <v>       0.00000000 </v>
   <v>       0.00000000 </v>
   <v>       0.00000000 </v>
   <v>       0.00000000 </v>
   <v>       0.00000000 </v>
   <v>       0.00000000 </v>
   <v>       0.00000000 </v>
   <v>       0.00000000 </v>
   <v>       0.00000000 </v>
   <v>       0.00000000 </v>
   <v>       0.00000000 </v>
   <v>       0.00000000 </v>
   <v>       0.00000000 </v>
   <v>       0.00000000 </v>
   <v>       0.00000000 </v>
   <v>       0.00000000 </v>
   <v>       0.00000000 </v>
   <v>       0.00000000 </v>
   <v>       0.00000000 </v>
   <v>       0.00000000 </v>
   <v>       0.00000000 </v>
   <v>       0.00000000 </v>
   <v>       0.00000000 </v>
   <v>       0.00000000 </v>
   <v>       0.00000000 </v>
   <v>       0.00000000 </v>
   <v>       0.00000000 </v>
   <v>       0.00000000 </v>
   <v>       0.00000000 </v>
   <v>       0.00000000 </v>
   <v>       0.00000000 </v>
   <v>       0.00000000 </v>
   <v>       0.00000000 </v>
   <v>       0.00000000 </v>
   <v>       0.00000000 </v>
   <v>       0.00000000 </v>
   <v>       0.00000000 </v>
   <v>       0.00000000 </v>
   <v>       0.00000000 </v>
   <v>       0.00000000 </v>
   <v>       0.00000000 </v>
   <v>       0.00000000 </v>
   <v>       0.00000000 </v>
   <v>       0.00000000 </v>
   <v>       0.00000000 </v>
   <v>       0.00000000 </v>
   <v>       0.00000000 </v>
   <v>       0.00000000 </v>
   <v>       0.00000000 </v>
   <v>       0.00000000 </v>
   <v>       0.00000000 </v>
   <v>       0.00000000 </v>
   <v>       0.00000000 </v>
   <v>       0.00000000 </v>
   <v>       0.00000000 </v>
   <v>       0.00000000 </v>
   <v>       0.00000000 </v>
   <v>       0.00000000 </v>
   <v>       0.00000000 </v>
   <v>       0.00000000 </v>
   <v>       0.00000000 </v>
   <v>       0.00000000 </v>
   <v>       0.00000000 </v>
   <v>       0.00000000 </v>
   <v>       0.00000000 </v>
   <v>       0.00000000 </v>
   <v>       0.00000000 </v>
   <v>       0.00000000 </v>
   <v>       0.00000000 </v>
   <v>       0.00000000 </v>
   <v>       0.00000000 </v>
   <v>       0.00000000 </v>
   <v>       0.00000000 </v>
   <v>       0.00000000 </v>
   <v>       0.00000000 </v>
   <v>       0.00000000 </v>
   <v>       0.00000000 </v>
   <v>       0.00000000 </v>
   <v>       0.00000000 </v>
   <v>       0.00000000 </v>
   <v>       0.00000000 </v>
   <v>       0.00000000 </v>
   <v>       0.00000000 </v>
   <v>       0.00000000 </v>
   <v>       0.00000000 </v>
   <v>       0.00000000 </v>
   <v>       0.00000000 </v>
   <v>       0.00000000 </v>
   <v>       0.00000000 </v>
   <v>       0.00000000 </v>
   <v>       0.00000000 </v>
   <v>       0.00000000 </v>
   <v>       0.00000000 </v>
   <v>       0.00000000 </v>
   <v>       0.00000000 </v>
   <v>       0.00000000 </v>
   <v>       0.00000000 </v>
  </varray>
 </kpoints>
 <parameters>
  <separator name="general" >
   <i type="string" name="SYSTEM">unknown system</i>
   <i type="logical" name="LCOMPAT"> F  </i>
  </separator>
  <separator name="electronic" >
   <i type="string" name="PREC">accura</i>
   <i name="ENMAX">    500.00000000</i>
   <i name="ENAUG">    322.06900000</i>
   <i name="EDIFF">      0.00001000</i>
   <i type="int" name="IALGO">    58</i>
   <i type="int" name="IWAVPR">    10</i>
   <i type="int" name="NBANDS">     8</i>
   <i name="NELECT">      8.00000000</i>
   <i type="int" name="TURBO">     0</i>
   <i type="int" name="IRESTART">     0</i>
   <i type="int" name="NREBOOT">     0</i>
   <i type="int" name="NMIN">     0</i>
   <i name="EREF">      0.00000000</i>
   <separator name="electronic smearing" >
    <i type="int" name="ISMEAR">     0</i>
    <i name="SIGMA">      0.01000000</i>
    <i name="KSPACING">      0.50000000</i>
    <i type="logical" name="KGAMMA"> T  </i>
   </separator>
   <separator name="electronic projectors" >
    <i type="logical" name="LREAL"> F  </i>
    <v name="ROPT">      0.00000000</v>
    <i type="int" name="LMAXPAW">  -100</i>
    <i type="int" name="LMAXMIX">     2</i>
    <i type="logical" name="NLSPLINE"> F  </i>
   </separator>
   <separator name="electronic startup" >
    <i type="int" name="ISTART">     1</i>
    <i type="int" name="ICHARG">     0</i>
    <i type="int" name="INIWAV">     1</i>
   </separator>
   <separator name="electronic spin" >
    <i type="int" name="ISPIN">     1</i>
    <i type="logical" name="LNONCOLLINEAR"> F  </i>
    <v name="MAGMOM">      1.00000000      1.00000000</v>
    <i name="NUPDOWN">     -1.00000000</i>
    <i type="logical" name="LSORBIT"> F  </i>
    <v name="SAXIS">      0.00000000      0.00000000      1.00000000</v>
    <i type="logical" name="LSPIRAL"> F  </i>
    <v name="QSPIRAL">      0.00000000      0.00000000      0.00000000</v>
    <i type="logical" name="LZEROZ"> F  </i>
   </separator>
   <separator name="electronic exchange-correlation" >
    <i type="logical" name="LASPH"> T  </i>
    <i type="logical" name="LMETAGGA"> F  </i>
   </separator>
   <separator name="electronic convergence" >
    <i type="int" name="NELM">    60</i>
    <i type="int" name="NELMDL">     0</i>
    <i type="int" name="NELMIN">    10</i>
    <i name="ENINI">    500.00000000</i>
    <separator name="electronic convergence detail" >
     <i type="logical" name="LDIAG"> T  </i>
     <i type="logical" name="LSUBROT"> F  </i>
     <i name="WEIMIN">      0.00000000</i>
     <i name="EBREAK">      0.00000031</i>
     <i name="DEPER">      0.30000000</i>
     <i type="int" name="NRMM">     4</i>
     <i name="TIME">      0.30000000</i>
    </separator>
   </separator>
   <separator name="electronic mixer" >
    <i name="AMIX">      0.40000000</i>
    <i name="BMIX">      1.00000000</i>
    <i name="AMIN">      0.10000000</i>
    <i name="AMIX_MAG">      1.60000000</i>
    <i name="BMIX_MAG">      1.00000000</i>
    <separator name="electronic mixer details" >
     <i type="int" name="IMIX">     4</i>
     <i type="logical" name="MIXFIRST"> F  </i>
     <i type="int" name="MAXMIX">   -45</i>
     <i name="WC">    100.00000000</i>
     <i type="int" name="INIMIX">     1</i>
     <i type="int" name="MIXPRE">     1</i>
     <i type="int" name="MREMOVE">     5</i>
    </separator>
   </separator>
   <separator name="electronic dipolcorrection" >
    <i type="logical" name="LDIPOL"> F  </i>
    <i type="logical" name="LMONO"> F  </i>
    <i type="int" name="IDIPOL">     0</i>
    <i name="EPSILON">      1.00000000</i>
    <v name="DIPOL">   -100.00000000   -100.00000000   -100.00000000</v>
    <i name="EFIELD">      0.00000000</i>
   </separator>
  </separator>
  <separator name="grids" >
   <i type="int" name="NGX">    28</i>
   <i type="int" name="NGY">    28</i>
   <i type="int" name="NGZ">    28</i>
   <i type="int" name="NGXF">    56</i>
   <i type="int" name="NGYF">    56</i>
   <i type="int" name="NGZF">    56</i>
   <i type="logical" name="ADDGRID"> T  </i>
  </separator>
  <separator name="ionic" >
   <i type="int" name="NSW">     0</i>
   <i type="int" name="IBRION">    -1</i>
   <i type="int" name="ISIF">     0</i>
   <i name="PSTRESS">      0.00000000</i>
   <i name="EDIFFG">      0.00010000</i>
   <i type="int" name="NFREE">     0</i>
   <i name="POTIM">      0.50000000</i>
   <i name="SMASS">     -3.00000000</i>
   <i name="SCALEE">      1.00000000</i>
  </separator>
  <separator name="ionic md" >
   <i name="TEBEG">      0.00010000</i>
   <i name="TEEND">      0.00010000</i>
   <i type="int" name="NBLOCK">     1</i>
   <i type="int" name="KBLOCK">     1</i>
   <i type="int" name="NPACO">   256</i>
   <i name="APACO">     16.00000000</i>
  </separator>
  <separator name="symmetry" >
   <i type="int" name="ISYM">     3</i>
   <i name="SYMPREC">      0.00001000</i>
  </separator>
  <separator name="dos" >
   <i type="logical" name="LORBIT"> F  </i>
   <v name="RWIGS">     -1.00000000</v>
   <i type="int" name="NEDOS">   301</i>
   <i name="EMIN">     10.00000000</i>
   <i name="EMAX">    -10.00000000</i>
   <i name="EFERMI">      0.00000000</i>
  </separator>
  <separator name="writing" >
   <i type="int" name="NWRITE">     2</i>
   <i type="logical" name="LWAVE"> F  </i>
   <i type="logical" name="LCHARG"> F  </i>
   <i type="logical" name="LPARD"> F  </i>
   <i type="logical" name="LVTOT"> F  </i>
   <i type="logical" name="LVHAR"> F  </i>
   <i type="logical" name="LELF"> F  </i>
   <i type="logical" name="LOPTICS"> F  </i>
   <v name="STM">      0.00000000      0.00000000      0.00000000      0.00000000      0.00000000      0.00000000      0.00000000</v>
  </separator>
  <separator name="performance" >
   <i type="int" name="NPAR">     4</i>
   <i type="int" name="NSIM">     4</i>
   <i type="int" name="NBLK">    -1</i>
   <i type="logical" name="LPLANE"> T  </i>
   <i type="logical" name="LSCALAPACK"> T  </i>
   <i type="logical" name="LSCAAWARE"> F  </i>
   <i type="logical" name="LSCALU"> F  </i>
   <i type="logical" name="LASYNC"> F  </i>
   <i type="logical" name="LORBITALREAL"> F  </i>
  </separator>
  <separator name="miscellaneous" >
   <i type="int" name="IDIOT">     3</i>
   <i type="logical" name="LMUSIC"> F  </i>
   <v name="POMASS">     28.08500000</v>
   <v name="DARWINR">      0.00000000</v>
   <v name="DARWINV">      1.00000000</v>
   <i type="logical" name="LCORR"> T  </i>
  </separator>
  <i type="logical" name="GGA_COMPAT"> T  </i>
  <i type="logical" name="LBERRY"> F  </i>
  <i type="int" name="ICORELEVEL">     0</i>
  <i type="logical" name="LDAU"> F  </i>
  <i type="int" name="I_CONSTRAINED_M">     0</i>
  <separator name="electronic exchange-correlation" >
   <i type="string" name="GGA">--</i>
   <i type="int" name="VOSKOWN">     0</i>
   <i type="logical" name="LHFCALC"> T  </i>
   <i type="string" name="PRECFOCK">fast</i>
   <i type="logical" name="LSYMGRAD"> F  </i>
   <i type="logical" name="LHFONE"> F  </i>
   <i type="logical" name="LRHFCALC"> F  </i>
   <i type="logical" name="LTHOMAS"> F  </i>
   <i type="logical" name="LMODELHF"> F  </i>
   <i name="ENCUT4O">     -1.00000000</i>
   <i type="int" name="EXXOEP">     0</i>
   <i type="int" name="FOURORBIT">     0</i>
   <i name="AEXX">      0.25000000</i>
   <i name="HFALPHA">     -1.00000000</i>
   <i name="MCALPHA">      0.00000000</i>
   <i name="ALDAX">      0.75000000</i>
   <i name="AGGAX">      0.75000000</i>
   <i name="ALDAC">      1.00000000</i>
   <i name="AGGAC">      1.00000000</i>
   <i type="int" name="NKREDX">     1</i>
   <i type="int" name="NKREDY">     1</i>
   <i type="int" name="NKREDZ">     1</i>
   <i type="logical" name="SHIFTRED"> F  </i>
   <i type="logical" name="ODDONLY"> F  </i>
   <i type="logical" name="EVENONLY"> F  </i>
   <i type="int" name="LMAXFOCK">     4</i>
   <i type="int" name="NMAXFOCKAE">     1</i>
   <i type="logical" name="LFOCKAEDFT"> F  </i>
   <i name="HFSCREEN">      0.20700000</i>
   <i name="HFSCREENC">      0.20700000</i>
   <i type="int" name="NBANDSGWLOW">     1</i>
  </separator>
  <separator name="vdW DFT" >
   <i type="logical" name="LUSE_VDW"> F  </i>
   <i name="Zab_VDW">     -0.84910000</i>
   <i name="PARAM1">      0.12340000</i>
   <i name="PARAM2">      1.00000000</i>
   <i name="PARAM3">      0.00000000</i>
  </separator>
  <separator name="model GW" >
   <i type="int" name="MODEL_GW">     0</i>
   <i name="MODEL_EPS0">     11.98236458</i>
   <i name="MODEL_ALPHA">      1.00000000</i>
  </separator>
  <separator name="linear response parameters" >
   <i type="logical" name="LEPSILON"> F  </i>
   <i type="logical" name="LRPA"> F  </i>
   <i type="logical" name="LNABLA"> F  </i>
   <i type="logical" name="LVEL"> F  </i>
   <i type="int" name="KINTER">     0</i>
   <i name="CSHIFT">      0.10000000</i>
   <i name="OMEGAMAX">     -1.00000000</i>
   <i name="DEG_THRESHOLD">      0.00200000</i>
  </separator>
  <separator name="orbital magnetization" >
   <i type="logical" name="NUCIND"> F  </i>
   <v name="MAGPOS">      0.00000000      0.00000000      0.00000000</v>
   <i type="logical" name="LNICSALL"> T  </i>
   <i type="logical" name="ORBITALMAG"> F  </i>
   <i type="logical" name="LMAGBLOCH"> F  </i>
   <i type="logical" name="LCHIMAG"> F  </i>
   <i type="logical" name="LGAUGE"> T  </i>
   <i type="int" name="MAGATOM">     0</i>
   <v name="MAGDIPOL">      0.00000000      0.00000000      0.00000000</v>
   <v name="AVECCONST">      0.00000000      0.00000000      0.00000000</v>
  </separator>
  <separator name="response functions" >
   <i type="logical" name="LADDER"> F  </i>
   <i type="logical" name="LFXC"> F  </i>
   <i type="logical" name="LHARTREE"> T  </i>
   <i type="int" name="IBSE">     0</i>
   <v type="int" name="KPOINT">    -1     0     0     0</v>
   <i type="logical" name="LTCTE"> F  </i>
   <i type="logical" name="LTETE"> F  </i>
   <i type="logical" name="LTRIPLET"> F  </i>
   <i type="logical" name="LFXCEPS"> F  </i>
   <i type="logical" name="LFXHEG"> F  </i>
   <i type="int" name="NATURALO">     0</i>
   <i type="logical" name="L2ORDER"> F  </i>
   <i type="logical" name="LUSEW"> F  </i>
   <i name="ENCUTGW">     -2.00000000</i>
   <i name="ENCUTGWSOFT">     -2.00000000</i>
   <i name="ENCUTLF">     -1.00000000</i>
   <i type="int" name="LMAXMP2">    -1</i>
   <i name="SCISSOR">      0.00000000</i>
   <i type="int" name="NOMEGA">     0</i>
   <i type="int" name="NOMEGAR">     0</i>
   <i type="int" name="NBANDSGW">    -1</i>
   <i type="int" name="NBANDSO">    -1</i>
   <i type="int" name="NBANDSV">    -1</i>
   <i type="int" name="NELM">     1</i>
   <i type="int" name="NELMHF">     1</i>
   <i type="int" name="DIM">     3</i>
   <i type="int" name="ANTIRES">     0</i>
   <i name="OMEGAMAX">    -30.00000000</i>
   <i name="OMEGAMIN">    -30.00000000</i>
   <i name="OMEGATL">   -200.00000000</i>
   <i type="int" name="OMEGAGRID">     0</i>
   <i name="CSHIFT">     -0.10000000</i>
   <i type="logical" name="SELFENERGY"> F  </i>
   <i type="logical" name="LSPECTRAL"> F  </i>
   <i type="logical" name="LSPECTRALGW"> F  </i>
   <i type="logical" name="LSINGLES"> F  </i>
   <i type="logical" name="LFERMIGW"> F  </i>
   <i type="logical" name="ODDONLYGW"> F  </i>
   <i type="logical" name="EVENONLYGW"> F  </i>
   <i type="int" name="NKREDLFX">     1</i>
   <i type="int" name="NKREDLFY">     1</i>
   <i type="int" name="NKREDLFZ">     1</i>
   <i type="int" name="MAXMEM">  1800</i>
   <i type="int" name="TELESCOPE">     0</i>
   <i type="int" name="TAUPAR">     1</i>
   <i type="int" name="OMEGAPAR">    -1</i>
   <i name="LAMBDA">      1.00000000</i>
  </separator>
  <separator name="External order field" >
   <i name="OFIELD_KAPPA">      0.00000000</i>
   <v name="OFIELD_K">      0.00000000      0.00000000      0.00000000</v>
   <i name="OFIELD_Q6_NEAR">      0.00000000</i>
   <i name="OFIELD_Q6_FAR">      0.00000000</i>
   <i name="OFIELD_A">      0.00000000</i>
  </separator>
 </parameters>
 <atominfo>
  <atoms>       2 </atoms>
  <types>       1 </types>
  <array name="atoms" >
   <dimension dim="1">ion</dimension>
   <field type="string">element</field>
   <field type="int">atomtype</field>
   <set>
    <rc><c>Si</c><c>   1</c></rc>
    <rc><c>Si</c><c>   1</c></rc>
   </set>
  </array>
  <array name="atomtypes" >
   <dimension dim="1">type</dimension>
   <field type="int">atomspertype</field>
   <field type="string">element</field>
   <field>mass</field>
   <field>valence</field>
   <field type="string">pseudopotential</field>
   <set>
    <rc><c>   2</c><c>Si</c><c>     28.08500000</c><c>      4.00000000</c><c>  PAW_PBE Si 05Jan2001                  </c></rc>
   </set>
  </array>
 </atominfo>
 <structure name="initialpos" >
  <crystal>
   <varray name="basis" >
    <v>       2.71308725       2.71308725       0.00000000 </v>
    <v>       0.00000000       2.71308725       2.71308725 </v>
    <v>       2.71308725       0.00000000       2.71308725 </v>
   </varray>
   <i name="volume">     39.94121528 </i>
   <varray name="rec_basis" >
    <v>       0.18429190       0.18429190      -0.18429190 </v>
    <v>      -0.18429190       0.18429190       0.18429190 </v>
    <v>       0.18429190      -0.18429190       0.18429190 </v>
   </varray>
  </crystal>
  <varray name="positions" >
   <v>       0.00000000       0.00000000       0.00000000 </v>
   <v>       0.25000000       0.25000000       0.25000000 </v>
  </varray>
 </structure>
 <calculation>
  <scstep>
   <time name="total">  103.61  103.79</time>
   <energy>
    <i name="alphaZ">      3.37126756 </i>
    <i name="ewald">   -228.72466456 </i>
    <i name="hartreedc">    -14.94300062 </i>
    <i name="XCdc">    -14.40031609 </i>
    <i name="pawpsdc">   1700.61436417 </i>
    <i name="pawaedc">  -1672.94540652 </i>
    <i name="eentropy">     -0.00000000 </i>
    <i name="bandstr">     -0.75670822 </i>
    <i name="atom">    204.02745786 </i>
    <i name="e_fr_energy">    -12.55622546 </i>
    <i name="e_wo_entrp">    -12.55622546 </i>
    <i name="e_0_energy">    -12.55622546 </i>
   </energy>
  </scstep>
  <scstep>
   <time name="total">  104.50  104.57</time>
   <energy>
    <i name="e_fr_energy">    -12.55622565 </i>
    <i name="e_wo_entrp">    -12.55622565 </i>
    <i name="e_0_energy">    -12.55622565 </i>
   </energy>
  </scstep>
  <scstep>
   <time name="total">  105.02  105.09</time>
   <energy>
    <i name="e_fr_energy">    -12.55622569 </i>
    <i name="e_wo_entrp">    -12.55622569 </i>
    <i name="e_0_energy">    -12.55622569 </i>
   </energy>
  </scstep>
  <scstep>
   <time name="total">  105.27  105.35</time>
   <energy>
    <i name="e_fr_energy">    -12.55622571 </i>
    <i name="e_wo_entrp">    -12.55622571 </i>
    <i name="e_0_energy">    -12.55622571 </i>
   </energy>
  </scstep>
  <scstep>
   <time name="total">  104.59  104.66</time>
   <energy>
    <i name="e_fr_energy">    -12.55622572 </i>
    <i name="e_wo_entrp">    -12.55622572 </i>
    <i name="e_0_energy">    -12.55622572 </i>
   </energy>
  </scstep>
  <scstep>
   <time name="total">  105.09  105.13</time>
   <energy>
    <i name="e_fr_energy">    -12.55622572 </i>
    <i name="e_wo_entrp">    -12.55622572 </i>
    <i name="e_0_energy">    -12.55622572 </i>
   </energy>
  </scstep>
  <scstep>
   <time name="total">  105.02  105.11</time>
   <energy>
    <i name="e_fr_energy">    -12.55622572 </i>
    <i name="e_wo_entrp">    -12.55622572 </i>
    <i name="e_0_energy">    -12.55622572 </i>
   </energy>
  </scstep>
  <scstep>
   <time name="total">  104.55  104.65</time>
   <energy>
    <i name="e_fr_energy">    -12.55622572 </i>
    <i name="e_wo_entrp">    -12.55622572 </i>
    <i name="e_0_energy">    -12.55622572 </i>
   </energy>
  </scstep>
  <scstep>
   <time name="total">  105.06  105.14</time>
   <energy>
    <i name="e_fr_energy">    -12.55622572 </i>
    <i name="e_wo_entrp">    -12.55622572 </i>
    <i name="e_0_energy">    -12.55622572 </i>
   </energy>
  </scstep>
  <scstep>
   <time name="total">  104.33  104.40</time>
   <energy>
    <i name="alphaZ">      3.37126756 </i>
    <i name="ewald">   -228.72466456 </i>
    <i name="hartreedc">    -14.94322614 </i>
    <i name="XCdc">    -14.40030071 </i>
    <i name="pawpsdc">   1700.29326729 </i>
    <i name="pawaedc">  -1672.62432002 </i>
    <i name="eentropy">     -0.00000000 </i>
    <i name="bandstr">     -0.75656458 </i>
    <i name="atom">    204.02745786 </i>
    <i name="e_fr_energy">    -12.55622572 </i>
    <i name="e_wo_entrp">    -12.55622572 </i>
    <i name="e_0_energy">    -12.55622572 </i>
   </energy>
  </scstep>
  <structure>
   <crystal>
    <varray name="basis" >
     <v>       2.71308725       2.71308725       0.00000000 </v>
     <v>       0.00000000       2.71308725       2.71308725 </v>
     <v>       2.71308725       0.00000000       2.71308725 </v>
    </varray>
    <i name="volume">     39.94121528 </i>
    <varray name="rec_basis" >
     <v>       0.18429190       0.18429190      -0.18429190 </v>
     <v>      -0.18429190       0.18429190       0.18429190 </v>
     <v>       0.18429190      -0.18429190       0.18429190 </v>
    </varray>
   </crystal>
   <varray name="positions" >
    <v>       0.00000000       0.00000000       0.00000000 </v>
    <v>       0.25000000       0.25000000       0.25000000 </v>
   </varray>
  </structure>
  <varray name="forces" >
   <v>       0.00000000       0.00000000       0.00000000 </v>
   <v>      -0.00000000      -0.00000000      -0.00000000 </v>
  </varray>
  <energy>
   <i name="e_fr_energy">    -12.55622572 </i>
   <i name="e_wo_entrp">    -12.55622572 </i>
   <i name="e_0_energy">     -0.00000000 </i>
  </energy>
  <time name="totalsc"> 1088.55 1089.65</time>
  <eigenvalues>
   <array>
    <dimension dim="1">band</dimension>
    <dimension dim="2">kpoint</dimension>
    <dimension dim="3">spin</dimension>
    <field>eigene</field>
    <field>occ</field>
    <set>
     <set comment="spin 1">
      <set comment="kpoint 1">
       <r>   -7.8141    1.0000 </r>
       <r>    5.4989    1.0000 </r>
       <r>    5.4989    1.0000 </r>
       <r>    5.4989    1.0000 </r>
       <r>    8.8231    0.0000 </r>
       <r>    8.8231    0.0000 </r>
       <r>    8.8231    0.0000 </r>
       <r>    9.8450    0.0000 </r>
      </set>
      <set comment="kpoint 2">
       <r>   -7.6939    1.0000 </r>
       <r>    4.4692    1.0000 </r>
       <r>    5.3258    1.0000 </r>
       <r>    5.3258    1.0000 </r>
       <r>    8.8636    0.0000 </r>
       <r>    9.0832    0.0000 </r>
       <r>    9.0832    0.0000 </r>
       <r>   10.6112    0.0000 </r>
      </set>
      <set comment="kpoint 3">
       <r>   -7.3374    1.0000 </r>
       <r>    2.6168    1.0000 </r>
       <r>    4.9592    1.0000 </r>
       <r>    4.9592    1.0000 </r>
       <r>    8.5505    0.0000 </r>
       <r>    9.5926    0.0000 </r>
       <r>    9.5926    0.0000 </r>
       <r>   12.2623    0.0000 </r>
      </set>
      <set comment="kpoint 4">
       <r>   -6.7625    1.0000 </r>
       <r>    0.7485    1.0000 </r>
       <r>    4.5995    1.0000 </r>
       <r>    4.5995    1.0000 </r>
       <r>    8.1835    0.0000 </r>
       <r>    9.8541    0.0000 </r>
       <r>    9.8541    0.0000 </r>
       <r>   13.8764    0.0000 </r>
      </set>
      <set comment="kpoint 5">
       <r>   -6.0246    1.0000 </r>
       <r>   -0.8979    1.0000 </r>
       <r>    4.3371    1.0000 </r>
       <r>    4.3371    1.0000 </r>
       <r>    7.9076    0.0000 </r>
       <r>    9.7763    0.0000 </r>
       <r>    9.7763    0.0000 </r>
       <r>   14.3399    0.0000 </r>
      </set>
      <set comment="kpoint 6">
       <r>   -5.3398    1.0000 </r>
       <r>   -2.0474    1.0000 </r>
       <r>    4.2019    1.0000 </r>
       <r>    4.2019    1.0000 </r>
       <r>    7.7641    0.0000 </r>
       <r>    9.6530    0.0000 </r>
       <r>    9.6530    0.0000 </r>
       <r>   14.1504    0.0000 </r>
      </set>
      <set comment="kpoint 7">
       <r>   -7.6535    1.0000 </r>
       <r>    4.6692    1.0000 </r>
       <r>    4.9838    1.0000 </r>
       <r>    4.9838    1.0000 </r>
       <r>    8.4634    0.0000 </r>
       <r>    9.5277    0.0000 </r>
       <r>    9.5277    0.0000 </r>
       <r>   10.5725    0.0000 </r>
      </set>
      <set comment="kpoint 8">
       <r>   -7.3750    1.0000 </r>
       <r>    3.1738    1.0000 </r>
       <r>    4.5498    1.0000 </r>
       <r>    4.7646    1.0000 </r>
       <r>    8.4806    0.0000 </r>
       <r>    9.6475    0.0000 </r>
       <r>   10.1704    0.0000 </r>
       <r>   11.4226    0.0000 </r>
      </set>
      <set comment="kpoint 9">
       <r>   -6.8700    1.0000 </r>
       <r>    1.3545    1.0000 </r>
       <r>    4.1916    1.0000 </r>
       <r>    4.3641    1.0000 </r>
       <r>    8.6160    0.0000 </r>
       <r>    9.6407    0.0000 </r>
       <r>   10.5478    0.0000 </r>
       <r>   11.7496    0.0000 </r>
      </set>
      <set comment="kpoint 10">
       <r>   -6.1755    1.0000 </r>
       <r>   -0.3498    1.0000 </r>
       <r>    3.9414    1.0000 </r>
       <r>    3.9772    1.0000 </r>
       <r>    8.4765    0.0000 </r>
       <r>    9.6315    0.0000 </r>
       <r>   10.4606    0.0000 </r>
       <r>   12.5900    0.0000 </r>
      </set>
      <set comment="kpoint 11">
       <r>   -5.4250    1.0000 </r>
       <r>   -1.7001    1.0000 </r>
       <r>    3.6074    1.0000 </r>
       <r>    3.9261    1.0000 </r>
       <r>    8.3425    0.0000 </r>
       <r>    9.5553    0.0000 </r>
       <r>   10.1972    0.0000 </r>
       <r>   13.9200    0.0000 </r>
      </set>
      <set comment="kpoint 12">
       <r>   -5.1214    1.0000 </r>
       <r>   -2.1548    1.0000 </r>
       <r>    3.4082    1.0000 </r>
       <r>    4.0351    1.0000 </r>
       <r>    8.3265    0.0000 </r>
       <r>    9.5986    0.0000 </r>
       <r>    9.9989    0.0000 </r>
       <r>   14.5625    0.0000 </r>
      </set>
      <set comment="kpoint 13">
       <r>   -5.6646    1.0000 </r>
       <r>   -1.3067    1.0000 </r>
       <r>    3.3689    1.0000 </r>
       <r>    4.2865    1.0000 </r>
       <r>    8.4433    0.0000 </r>
       <r>    9.7985    0.0000 </r>
       <r>    9.9263    0.0000 </r>
       <r>   14.3283    0.0000 </r>
      </set>
      <set comment="kpoint 14">
       <r>   -6.4252    1.0000 </r>
       <r>    0.1961    1.0000 </r>
       <r>    3.5067    1.0000 </r>
       <r>    4.6463    1.0000 </r>
       <r>    8.6804    0.0000 </r>
       <r>    9.8763    0.0000 </r>
       <r>   10.0361    0.0000 </r>
       <r>   13.2622    0.0000 </r>
      </set>
      <set comment="kpoint 15">
       <r>   -7.0633    1.0000 </r>
       <r>    1.9457    1.0000 </r>
       <r>    3.8393    1.0000 </r>
       <r>    5.0471    1.0000 </r>
       <r>    9.0010    0.0000 </r>
       <r>    9.5882    0.0000 </r>
       <r>    9.9205    0.0000 </r>
       <r>   12.3540    0.0000 </r>
      </set>
      <set comment="kpoint 16">
       <r>   -7.4945    1.0000 </r>
       <r>    3.5882    1.0000 </r>
       <r>    4.4587    1.0000 </r>
       <r>    5.3444    1.0000 </r>
       <r>    9.1517    0.0000 </r>
       <r>    9.2564    0.0000 </r>
       <r>    9.2925    0.0000 </r>
       <r>   11.5024    0.0000 </r>
      </set>
      <set comment="kpoint 17">
       <r>   -7.1744    1.0000 </r>
       <r>    3.0268    1.0000 </r>
       <r>    4.0704    1.0000 </r>
       <r>    4.0704    1.0000 </r>
       <r>    7.7446    0.0000 </r>
       <r>   10.4954    0.0000 </r>
       <r>   10.9968    0.0000 </r>
       <r>   10.9968    0.0000 </r>
      </set>
      <set comment="kpoint 18">
       <r>   -6.7430    1.0000 </r>
       <r>    1.7185    1.0000 </r>
       <r>    3.6274    1.0000 </r>
       <r>    3.6842    1.0000 </r>
       <r>    7.7857    0.0000 </r>
       <r>   10.0194    0.0000 </r>
       <r>   11.2948    0.0000 </r>
       <r>   11.6307    0.0000 </r>
      </set>
      <set comment="kpoint 19">
       <r>   -6.1053    1.0000 </r>
       <r>    0.1657    1.0000 </r>
       <r>    3.0511    1.0000 </r>
       <r>    3.4597    1.0000 </r>
       <r>    8.0400    0.0000 </r>
       <r>   10.4001    0.0000 </r>
       <r>   11.0803    0.0000 </r>
       <r>   11.6987    0.0000 </r>
      </set>
      <set comment="kpoint 20">
       <r>   -5.3432    1.0000 </r>
       <r>   -1.2355    1.0000 </r>
       <r>    2.5206    1.0000 </r>
       <r>    3.4194    1.0000 </r>
       <r>    8.0920    0.0000 </r>
       <r>   10.8186    0.0000 </r>
       <r>   11.4107    0.0000 </r>
       <r>   11.7259    0.0000 </r>
      </set>
      <set comment="kpoint 21">
       <r>   -4.7999    1.0000 </r>
       <r>   -2.0399    1.0000 </r>
       <r>    2.1431    1.0000 </r>
       <r>    3.5627    1.0000 </r>
       <r>    8.2108    0.0000 </r>
       <r>   10.6741    0.0000 </r>
       <r>   11.0966    0.0000 </r>
       <r>   13.4721    0.0000 </r>
      </set>
      <set comment="kpoint 22">
       <r>   -5.1209    1.0000 </r>
       <r>   -1.5739    1.0000 </r>
       <r>    1.9700    1.0000 </r>
       <r>    3.8710    1.0000 </r>
       <r>    8.4981    0.0000 </r>
       <r>   10.6472    0.0000 </r>
       <r>   10.8697    0.0000 </r>
       <r>   14.3610    0.0000 </r>
      </set>
      <set comment="kpoint 23">
       <r>   -5.8746    1.0000 </r>
       <r>   -0.3095    1.0000 </r>
       <r>    2.0611    1.0000 </r>
       <r>    4.3002    1.0000 </r>
       <r>    8.9184    0.0000 </r>
       <r>   10.6402    0.0000 </r>
       <r>   10.6761    0.0000 </r>
       <r>   12.8911    0.0000 </r>
      </set>
      <set comment="kpoint 24">
       <r>   -6.5639    1.0000 </r>
       <r>    1.0367    1.0000 </r>
       <r>    2.6026    1.0000 </r>
       <r>    4.7553    1.0000 </r>
       <r>    9.3107    0.0000 </r>
       <r>   10.1253    0.0000 </r>
       <r>   10.3251    0.0000 </r>
       <r>   12.1571    0.0000 </r>
      </set>
      <set comment="kpoint 25">
       <r>   -6.3848    1.0000 </r>
       <r>    1.2046    1.0000 </r>
       <r>    3.2595    1.0000 </r>
       <r>    3.2595    1.0000 </r>
       <r>    7.0956    0.0000 </r>
       <r>    9.0213    0.0000 </r>
       <r>   12.7044    0.0000 </r>
       <r>   12.7044    0.0000 </r>
      </set>
      <set comment="kpoint 26">
       <r>   -5.8110    1.0000 </r>
       <r>    0.1226    1.0000 </r>
       <r>    2.6801    1.0000 </r>
       <r>    2.9968    1.0000 </r>
       <r>    7.2283    0.0000 </r>
       <r>    8.7046    0.0000 </r>
       <r>   13.0217    0.0000 </r>
       <r>   13.1936    0.0000 </r>
      </set>
      <set comment="kpoint 27">
       <r>   -5.0719    1.0000 </r>
       <r>   -1.0432    1.0000 </r>
       <r>    1.8845    1.0000 </r>
       <r>    2.9254    1.0000 </r>
       <r>    7.4464    0.0000 </r>
       <r>    9.5135    0.0000 </r>
       <r>   12.8523    0.0000 </r>
       <r>   13.0236    0.0000 </r>
      </set>
      <set comment="kpoint 28">
       <r>   -4.3804    1.0000 </r>
       <r>   -1.9515    1.0000 </r>
       <r>    1.2448    1.0000 </r>
       <r>    3.0500    1.0000 </r>
       <r>    7.5967    0.0000 </r>
       <r>   11.0893    0.0000 </r>
       <r>   12.6681    0.0000 </r>
       <r>   12.6895    0.0000 </r>
      </set>
      <set comment="kpoint 29">
       <r>   -4.4425    1.0000 </r>
       <r>   -1.8623    1.0000 </r>
       <r>    0.9235    1.0000 </r>
       <r>    3.3564    1.0000 </r>
       <r>    7.9167    0.0000 </r>
       <r>   12.2169    0.0000 </r>
       <r>   12.3158    0.0000 </r>
       <r>   13.3411    0.0000 </r>
      </set>
      <set comment="kpoint 30">
       <r>   -5.1562    1.0000 </r>
       <r>   -1.0034    1.0000 </r>
       <r>    1.1053    1.0000 </r>
       <r>    3.8045    1.0000 </r>
       <r>    8.4112    0.0000 </r>
       <r>   11.7104    0.0000 </r>
       <r>   11.9293    0.0000 </r>
       <r>   13.0100    0.0000 </r>
      </set>
      <set comment="kpoint 31">
       <r>   -5.3006    1.0000 </r>
       <r>   -0.6256    1.0000 </r>
       <r>    2.6864    1.0000 </r>
       <r>    2.6864    1.0000 </r>
       <r>    6.7052    0.0000 </r>
       <r>    7.7942    0.0000 </r>
       <r>   14.5033    0.0000 </r>
       <r>   14.5033    0.0000 </r>
      </set>
      <set comment="kpoint 32">
       <r>   -4.6032    1.0000 </r>
       <r>   -1.5466    1.0000 </r>
       <r>    2.1109    1.0000 </r>
       <r>    2.5667    1.0000 </r>
       <r>    6.9244    0.0000 </r>
       <r>    7.8053    0.0000 </r>
       <r>   14.8321    0.0000 </r>
       <r>   14.8569    0.0000 </r>
      </set>
      <set comment="kpoint 33">
       <r>   -3.8442    1.0000 </r>
       <r>   -2.3559    1.0000 </r>
       <r>    1.2559    1.0000 </r>
       <r>    2.6480    1.0000 </r>
       <r>    7.1108    0.0000 </r>
       <r>    9.0827    0.0000 </r>
       <r>   14.5229    0.0000 </r>
       <r>   14.7036    0.0000 </r>
      </set>
      <set comment="kpoint 34">
       <r>   -3.7686    1.0000 </r>
       <r>   -2.3937    1.0000 </r>
       <r>    0.7138    1.0000 </r>
       <r>    2.9220    1.0000 </r>
       <r>    7.4145    0.0000 </r>
       <r>   10.9345    0.0000 </r>
       <r>   13.8434    0.0000 </r>
       <r>   14.3683    0.0000 </r>
      </set>
      <set comment="kpoint 35">
       <r>   -3.9481    1.0000 </r>
       <r>   -2.3694    1.0000 </r>
       <r>    2.3930    1.0000 </r>
       <r>    2.3930    1.0000 </r>
       <r>    6.6584    0.0000 </r>
       <r>    7.0082    0.0000 </r>
       <r>   16.3409    0.0000 </r>
       <r>   16.3409    0.0000 </r>
      </set>
      <set comment="kpoint 36">
       <r>   -3.2209    1.0000 </r>
       <r>   -3.0957    1.0000 </r>
       <r>    1.9238    1.0000 </r>
       <r>    2.4210    1.0000 </r>
       <r>    6.8531    0.0000 </r>
       <r>    7.4702    0.0000 </r>
       <r>   16.3002    0.0000 </r>
       <r>   16.6051    0.0000 </r>
      </set>
      <set comment="kpoint 37">
       <r>   -7.0206    1.0000 </r>
       <r>    2.2132    1.0000 </r>
       <r>    3.5342    1.0000 </r>
       <r>    4.6232    1.0000 </r>
       <r>    8.5356    0.0000 </r>
       <r>   10.0150    0.0000 </r>
       <r>   10.7599    0.0000 </r>
       <r>   11.1332    0.0000 </r>
      </set>
      <set comment="kpoint 38">
       <r>   -6.4483    1.0000 </r>
       <r>    0.7255    1.0000 </r>
       <r>    2.9132    1.0000 </r>
       <r>    4.2705    1.0000 </r>
       <r>    8.8755    0.0000 </r>
       <r>    9.9301    0.0000 </r>
       <r>   11.0878    0.0000 </r>
       <r>   11.2731    0.0000 </r>
      </set>
      <set comment="kpoint 39">
       <r>   -5.7116    1.0000 </r>
       <r>   -0.7939    1.0000 </r>
       <r>    2.6284    1.0000 </r>
       <r>    3.8865    1.0000 </r>
       <r>    8.9342    0.0000 </r>
       <r>    9.6390    0.0000 </r>
       <r>   11.2236    0.0000 </r>
       <r>   12.1806    0.0000 </r>
      </set>
      <set comment="kpoint 40">
       <r>   -5.0211    1.0000 </r>
       <r>   -1.9052    1.0000 </r>
       <r>    2.5190    1.0000 </r>
       <r>    3.6489    1.0000 </r>
       <r>    8.9322    0.0000 </r>
       <r>    9.3803    0.0000 </r>
       <r>   11.1406    0.0000 </r>
       <r>   13.7748    0.0000 </r>
      </set>
      <set comment="kpoint 41">
       <r>   -6.2416    1.0000 </r>
       <r>    0.7654    1.0000 </r>
       <r>    2.7301    1.0000 </r>
       <r>    3.5111    1.0000 </r>
       <r>    7.9147    0.0000 </r>
       <r>    9.5653    0.0000 </r>
       <r>   11.4317    0.0000 </r>
       <r>   12.5686    0.0000 </r>
      </set>
      <set comment="kpoint 42">
       <r>   -5.5504    1.0000 </r>
       <r>   -0.4567    1.0000 </r>
       <r>    2.0971    1.0000 </r>
       <r>    3.1632    1.0000 </r>
       <r>    8.3051    0.0000 </r>
       <r>    9.9923    0.0000 </r>
       <r>   11.0995    0.0000 </r>
       <r>   12.9807    0.0000 </r>
      </set>
      <set comment="kpoint 43">
       <r>   -4.7944    1.0000 </r>
       <r>   -1.5998    1.0000 </r>
       <r>    1.6697    1.0000 </r>
       <r>    2.9884    1.0000 </r>
       <r>    8.4508    0.0000 </r>
       <r>   10.5977    0.0000 </r>
       <r>   11.5362    0.0000 </r>
       <r>   12.9316    0.0000 </r>
      </set>
      <set comment="kpoint 44">
       <r>   -4.4933    1.0000 </r>
       <r>   -1.9960    1.0000 </r>
       <r>    1.4114    1.0000 </r>
       <r>    3.0884    1.0000 </r>
       <r>    8.6852    0.0000 </r>
       <r>   10.3329    0.0000 </r>
       <r>   12.7761    0.0000 </r>
       <r>   13.3297    0.0000 </r>
      </set>
      <set comment="kpoint 45">
       <r>   -5.0634    1.0000 </r>
       <r>   -1.2150    1.0000 </r>
       <r>    1.3982    1.0000 </r>
       <r>    3.4181    1.0000 </r>
       <r>    9.0867    0.0000 </r>
       <r>   10.1290    0.0000 </r>
       <r>   12.0178    0.0000 </r>
       <r>   12.6893    0.0000 </r>
      </set>
      <set comment="kpoint 46">
       <r>   -5.8212    1.0000 </r>
       <r>   -0.1048    1.0000 </r>
       <r>    1.8220    1.0000 </r>
       <r>    3.8773    1.0000 </r>
       <r>    9.5882    0.0000 </r>
       <r>    9.6839    0.0000 </r>
       <r>   11.0229    0.0000 </r>
       <r>   12.2274    0.0000 </r>
      </set>
      <set comment="kpoint 47">
       <r>   -5.1776    1.0000 </r>
       <r>   -0.7808    1.0000 </r>
       <r>    2.1911    1.0000 </r>
       <r>    2.6149    1.0000 </r>
       <r>    7.5221    0.0000 </r>
       <r>    8.4372    0.0000 </r>
       <r>   12.9245    0.0000 </r>
       <r>   14.4615    0.0000 </r>
      </set>
      <set comment="kpoint 48">
       <r>   -4.4131    1.0000 </r>
       <r>   -1.7104    1.0000 </r>
       <r>    1.4825    1.0000 </r>
       <r>    2.4199    1.0000 </r>
       <r>    7.8944    0.0000 </r>
       <r>    9.3154    0.0000 </r>
       <r>   12.5378    0.0000 </r>
       <r>   14.8520    0.0000 </r>
      </set>
      <set comment="kpoint 49">
       <r>   -3.8830    1.0000 </r>
       <r>   -2.2750    1.0000 </r>
       <r>    0.8992    1.0000 </r>
       <r>    2.5511    1.0000 </r>
       <r>    8.1279    0.0000 </r>
       <r>   10.9889    0.0000 </r>
       <r>   12.2320    0.0000 </r>
       <r>   13.9384    0.0000 </r>
      </set>
      <set comment="kpoint 50">
       <r>   -4.3176    1.0000 </r>
       <r>   -1.8229    1.0000 </r>
       <r>    0.7826    1.0000 </r>
       <r>    2.9122    1.0000 </r>
       <r>    8.5348    0.0000 </r>
       <r>   11.4762    0.0000 </r>
       <r>   12.2953    0.0000 </r>
       <r>   13.2476    0.0000 </r>
      </set>
      <set comment="kpoint 51">
       <r>   -3.8647    1.0000 </r>
       <r>   -2.3654    1.0000 </r>
       <r>    1.9704    1.0000 </r>
       <r>    2.1014    1.0000 </r>
       <r>    7.4441    0.0000 </r>
       <r>    7.7348    0.0000 </r>
       <r>   14.5679    0.0000 </r>
       <r>   16.2055    0.0000 </r>
      </set>
      <set comment="kpoint 52">
       <r>   -3.2936    1.0000 </r>
       <r>   -2.8697    1.0000 </r>
       <r>    1.2453    1.0000 </r>
       <r>    2.1854    1.0000 </r>
       <r>    7.7486    0.0000 </r>
       <r>    9.0947    0.0000 </r>
       <r>   14.0805    0.0000 </r>
       <r>   14.3118    0.0000 </r>
      </set>
      <set comment="kpoint 53">
       <r>   -4.8280    1.0000 </r>
       <r>   -1.2271    1.0000 </r>
       <r>    1.3582    1.0000 </r>
       <r>    2.6560    1.0000 </r>
       <r>    9.3218    0.0000 </r>
       <r>    9.9501    0.0000 </r>
       <r>   10.7262    0.0000 </r>
       <r>   14.3246    0.0000 </r>
      </set>
      <set comment="kpoint 54">
       <r>   -4.1133    1.0000 </r>
       <r>   -2.0191    1.0000 </r>
       <r>    1.0434    1.0000 </r>
       <r>    2.3010    1.0000 </r>
       <r>    9.6827    0.0000 </r>
       <r>   10.1319    0.0000 </r>
       <r>   11.5176    0.0000 </r>
       <r>   13.5322    0.0000 </r>
      </set>
      <set comment="kpoint 55">
       <r>   -3.6532    1.0000 </r>
       <r>   -2.4128    1.0000 </r>
       <r>    1.2980    1.0000 </r>
       <r>    1.7226    1.0000 </r>
       <r>    9.2209    0.0000 </r>
       <r>    9.4315    0.0000 </r>
       <r>   12.0950    0.0000 </r>
       <r>   13.7949    0.0000 </r>
      </set>
      <set comment="kpoint 56">
       <r>   -3.4267    1.0000 </r>
       <r>   -2.5990    1.0000 </r>
       <r>    0.9852    1.0000 </r>
       <r>    1.7653    1.0000 </r>
       <r>    9.5848    0.0000 </r>
       <r>   10.9217    0.0000 </r>
       <r>   11.8464    0.0000 </r>
       <r>   11.9084    0.0000 </r>
      </set>
      <set comment="kpoint 57">
       <r>   -7.8061    1.0000 </r>
       <r>    5.6178    1.0000 </r>
       <r>    5.8252    0.0000 </r>
       <r>    5.5999    0.0000 </r>
       <r>    8.6950    0.0000 </r>
       <r>    8.8368    0.0000 </r>
       <r>   10.1141    0.0000 </r>
       <r>   12.5254    0.0000 </r>
      </set>
      <set comment="kpoint 58">
       <r>   -7.7927    1.0000 </r>
       <r>    5.6083    1.0000 </r>
       <r>    5.5568    0.0000 </r>
       <r>    5.7606    0.0000 </r>
       <r>    8.7352    0.0000 </r>
       <r>    8.8685    0.0000 </r>
       <r>   10.3363    0.0000 </r>
       <r>   14.1444    0.0000 </r>
      </set>
      <set comment="kpoint 59">
       <r>   -7.7524    1.0000 </r>
       <r>    5.4856    1.0000 </r>
       <r>    5.3930    0.0000 </r>
       <r>    5.6099    0.0000 </r>
       <r>    8.9265    0.0000 </r>
       <r>    9.0248    0.0000 </r>
       <r>   10.4588    0.0000 </r>
       <r>   14.7277    0.0000 </r>
      </set>
      <set comment="kpoint 60">
       <r>   -7.6852    1.0000 </r>
       <r>    5.2621    1.0000 </r>
       <r>    5.1255    0.5502 </r>
       <r>    5.4232    0.0000 </r>
       <r>    9.2048    0.0000 </r>
       <r>    9.2255    0.0000 </r>
       <r>   10.8236    0.0000 </r>
       <r>   13.5472    0.0000 </r>
      </set>
      <set comment="kpoint 61">
       <r>   -7.5913    1.0000 </r>
       <r>    4.8381    1.0000 </r>
       <r>    4.9872    1.0000 </r>
       <r>    5.1824    0.0000 </r>
       <r>    9.5167    0.0000 </r>
       <r>    9.4560    0.0000 </r>
       <r>   11.3688    0.0000 </r>
       <r>   11.0327    0.0000 </r>
      </set>
      <set comment="kpoint 62">
       <r>   -7.4706    1.0000 </r>
       <r>    4.3362    1.0000 </r>
       <r>    4.8741    0.0000 </r>
       <r>    4.9163    0.0000 </r>
       <r>    9.8107    0.0000 </r>
       <r>    9.7032    0.0000 </r>
       <r>   11.9513    0.0000 </r>
       <r>   10.0880    0.0000 </r>
      </set>
      <set comment="kpoint 63">
       <r>   -7.3233    1.0000 </r>
       <r>    3.8632    1.0000 </r>
       <r>    4.5516    1.0000 </r>
       <r>    4.6387    1.0000 </r>
       <r>   10.0437    0.0000 </r>
       <r>   10.1364    0.0000 </r>
       <r>   12.6867    0.0000 </r>
       <r>    9.6237    0.0000 </r>
      </set>
      <set comment="kpoint 64">
       <r>   -7.1495    1.0000 </r>
       <r>    3.3595    1.0000 </r>
       <r>    4.3660    1.0000 </r>
       <r>    4.2465    1.0000 </r>
       <r>   10.1812    0.0000 </r>
       <r>   10.5635    0.0000 </r>
       <r>   13.2623    0.0000 </r>
       <r>    9.4464    0.0000 </r>
      </set>
      <set comment="kpoint 65">
       <r>   -6.9497    1.0000 </r>
       <r>    2.8278    1.0000 </r>
       <r>    4.1054    1.0000 </r>
       <r>    3.9682    1.0000 </r>
       <r>   10.1976    0.0000 </r>
       <r>   10.9087    0.0000 </r>
       <r>   13.8902    0.0000 </r>
       <r>    9.5111    0.0000 </r>
      </set>
      <set comment="kpoint 66">
       <r>   -6.7239    1.0000 </r>
       <r>    2.2803    1.0000 </r>
       <r>    3.8628    1.0000 </r>
       <r>    3.7195    1.0000 </r>
       <r>   10.0887    0.0000 </r>
       <r>   11.0470    0.0000 </r>
       <r>   14.5020    0.0000 </r>
       <r>    9.7858    0.0000 </r>
      </set>
      <set comment="kpoint 67">
       <r>   -6.4733    1.0000 </r>
       <r>    1.7258    1.0000 </r>
       <r>    3.6169    1.0000 </r>
       <r>    3.5036    1.0000 </r>
       <r>   10.0875    0.0000 </r>
       <r>   11.2948    0.0000 </r>
       <r>   15.3263    0.0000 </r>
       <r>   10.0534    0.0000 </r>
      </set>
      <set comment="kpoint 68">
       <r>   -6.1973    1.0000 </r>
       <r>    1.1728    1.0000 </r>
       <r>    3.4114    1.0000 </r>
       <r>    3.3051    1.0000 </r>
       <r>    9.8316    0.0000 </r>
       <r>   11.2898    0.0000 </r>
       <r>   16.2006    0.0000 </r>
       <r>   10.6009    0.0000 </r>
      </set>
      <set comment="kpoint 69">
       <r>   -5.8967    1.0000 </r>
       <r>    0.6128    1.0000 </r>
       <r>    3.2303    1.0000 </r>
       <r>    3.1406    1.0000 </r>
       <r>    9.5060    0.0000 </r>
       <r>   11.1224    0.0000 </r>
       <r>   16.8052    0.0000 </r>
       <r>   11.2682    0.0000 </r>
      </set>
      <set comment="kpoint 70">
       <r>   -5.5718    1.0000 </r>
       <r>    0.0708    1.0000 </r>
       <r>    3.0413    1.0000 </r>
       <r>    2.9955    1.0000 </r>
       <r>    9.7111    0.0000 </r>
       <r>   11.0125    0.0000 </r>
       <r>   17.6380    0.0000 </r>
       <r>   11.4967    0.0000 </r>
      </set>
      <set comment="kpoint 71">
       <r>   -5.2240    1.0000 </r>
       <r>   -0.4736    1.0000 </r>
       <r>    2.9008    1.0000 </r>
       <r>    2.8786    1.0000 </r>
       <r>    9.4957    0.0000 </r>
       <r>   10.7061    0.0000 </r>
       <r>   18.2989    0.0000 </r>
       <r>   12.1589    0.0000 </r>
      </set>
      <set comment="kpoint 72">
       <r>   -4.8540    1.0000 </r>
       <r>   -1.0092    1.0000 </r>
       <r>    2.7966    1.0000 </r>
       <r>    2.7810    1.0000 </r>
       <r>    9.3633    0.0000 </r>
       <r>    9.9717    0.0000 </r>
       <r>   18.6787    0.0000 </r>
       <r>   12.7873    0.0000 </r>
      </set>
      <set comment="kpoint 73">
       <r>   -4.4622    1.0000 </r>
       <r>   -1.5329    1.0000 </r>
       <r>    2.7031    1.0000 </r>
       <r>    2.7082    1.0000 </r>
       <r>    9.1973    0.0000 </r>
       <r>    9.1472    0.0000 </r>
       <r>   19.1727    0.0000 </r>
       <r>   13.4989    0.0000 </r>
      </set>
      <set comment="kpoint 74">
       <r>   -4.0501    1.0000 </r>
       <r>   -2.0418    1.0000 </r>
       <r>    2.6343    1.0000 </r>
       <r>    2.6602    1.0000 </r>
       <r>    9.0540    0.0000 </r>
       <r>    8.6706    0.0000 </r>
       <r>   19.8886    0.0000 </r>
       <r>   14.1974    0.0000 </r>
      </set>
      <set comment="kpoint 75">
       <r>   -3.6185    1.0000 </r>
       <r>   -2.5364    1.0000 </r>
       <r>    2.5899    1.0000 </r>
       <r>    2.6357    1.0000 </r>
       <r>    8.9692    0.0000 </r>
       <r>    8.3143    0.0000 </r>
       <r>   20.3745    0.0000 </r>
       <r>   14.9025    0.0000 </r>
      </set>
      <set comment="kpoint 76">
       <r>   -3.1689    1.0000 </r>
       <r>   -3.0138    1.0000 </r>
       <r>    2.5711    1.0000 </r>
       <r>    2.6365    1.0000 </r>
       <r>    8.9272    0.0000 </r>
       <r>    8.0341    0.0000 </r>
       <r>   20.7064    0.0000 </r>
       <r>   15.5831    0.0000 </r>
      </set>
      <set comment="kpoint 77">
       <r>   -3.1689    1.0000 </r>
       <r>   -3.0138    1.0000 </r>
       <r>    2.5711    1.0000 </r>
       <r>    2.6365    1.0000 </r>
       <r>    8.9272    0.0000 </r>
       <r>    8.0341    0.0000 </r>
       <r>   20.7064    0.0000 </r>
       <r>   15.5831    0.0000 </r>
      </set>
      <set comment="kpoint 78">
       <r>   -3.1667    1.0000 </r>
       <r>   -3.0181    1.0000 </r>
       <r>    2.5199    1.0000 </r>
       <r>    2.6182    1.0000 </r>
       <r>    9.0836    0.0000 </r>
       <r>    8.1827    0.0000 </r>
       <r>   20.3463    0.0000 </r>
       <r>   15.4783    0.0000 </r>
      </set>
      <set comment="kpoint 79">
       <r>   -3.1619    1.0000 </r>
       <r>   -3.0195    1.0000 </r>
       <r>    2.4554    1.0000 </r>
       <r>    2.5848    1.0000 </r>
       <r>    9.2778    0.0000 </r>
       <r>    8.3796    0.0000 </r>
       <r>   19.9475    0.0000 </r>
       <r>   15.3600    0.0000 </r>
      </set>
      <set comment="kpoint 80">
       <r>   -3.1545    1.0000 </r>
       <r>   -3.0183    1.0000 </r>
       <r>    2.3799    1.0000 </r>
       <r>    2.5405    1.0000 </r>
       <r>    9.5241    0.0000 </r>
       <r>    9.0079    0.0000 </r>
       <r>   19.5021    0.0000 </r>
       <r>   15.2358    0.0000 </r>
      </set>
      <set comment="kpoint 81">
       <r>   -3.1446    1.0000 </r>
       <r>   -3.0147    1.0000 </r>
       <r>    2.2949    1.0000 </r>
       <r>    2.4861    1.0000 </r>
       <r>    9.7916    0.0000 </r>
       <r>    9.3298    0.0000 </r>
       <r>   18.8372    0.0000 </r>
       <r>   15.0942    0.0000 </r>
      </set>
      <set comment="kpoint 82">
       <r>   -3.1324    1.0000 </r>
       <r>   -3.0090    1.0000 </r>
       <r>    2.2031    1.0000 </r>
       <r>    2.4257    1.0000 </r>
       <r>   10.0925    0.0000 </r>
       <r>   10.1969    0.0000 </r>
       <r>   18.4421    0.0000 </r>
       <r>   14.9434    0.0000 </r>
      </set>
      <set comment="kpoint 83">
       <r>   -3.1180    1.0000 </r>
       <r>   -3.0014    1.0000 </r>
       <r>    2.1066    1.0000 </r>
       <r>    2.3609    1.0000 </r>
       <r>   10.4274    0.0000 </r>
       <r>   10.7081    0.0000 </r>
       <r>   17.9233    0.0000 </r>
       <r>   14.7870    0.0000 </r>
      </set>
      <set comment="kpoint 84">
       <r>   -3.1016    1.0000 </r>
       <r>   -2.9923    1.0000 </r>
       <r>    2.0075    1.0000 </r>
       <r>    2.2957    1.0000 </r>
       <r>   10.7942    0.0000 </r>
       <r>   11.6527    0.0000 </r>
       <r>   17.1073    0.0000 </r>
       <r>   14.6268    0.0000 </r>
      </set>
      <set comment="kpoint 85">
       <r>   -3.0834    1.0000 </r>
       <r>   -2.9820    1.0000 </r>
       <r>    1.9078    1.0000 </r>
       <r>    2.2312    1.0000 </r>
       <r>   11.1875    0.0000 </r>
       <r>   12.5025    0.0000 </r>
       <r>   16.4334    0.0000 </r>
       <r>   14.4654    0.0000 </r>
      </set>
      <set comment="kpoint 86">
       <r>   -3.0638    1.0000 </r>
       <r>   -2.9709    1.0000 </r>
       <r>    1.8093    1.0000 </r>
       <r>    2.1592    1.0000 </r>
       <r>   11.6019    0.0000 </r>
       <r>   12.7009    0.0000 </r>
       <r>   15.6205    0.0000 </r>
       <r>   14.3069    0.0000 </r>
      </set>
      <set comment="kpoint 87">
       <r>   -3.0430    1.0000 </r>
       <r>   -2.9596    1.0000 </r>
       <r>    1.7136    1.0000 </r>
       <r>    2.1032    1.0000 </r>
       <r>   12.0306    0.0000 </r>
       <r>   13.6964    0.0000 </r>
       <r>   14.8168    0.0000 </r>
       <r>   14.1584    0.0000 </r>
      </set>
      <set comment="kpoint 88">
       <r>   -3.0214    1.0000 </r>
       <r>   -2.9483    1.0000 </r>
       <r>    1.6222    1.0000 </r>
       <r>    2.0533    1.0000 </r>
       <r>   12.4646    0.0000 </r>
       <r>   13.9546    0.0000 </r>
       <r>   14.7925    0.0000 </r>
       <r>   14.0299    0.0000 </r>
      </set>
      <set comment="kpoint 89">
       <r>   -3.0000    1.0000 </r>
       <r>   -2.9377    1.0000 </r>
       <r>    1.5328    1.0000 </r>
       <r>    2.0043    1.0000 </r>
       <r>   12.6869    0.0000 </r>
       <r>   13.7040    0.0000 </r>
       <r>   14.5618    0.0000 </r>
       <r>   13.9923    0.0000 </r>
      </set>
      <set comment="kpoint 90">
       <r>   -2.9781    1.0000 </r>
       <r>   -2.9280    1.0000 </r>
       <r>    1.4549    1.0000 </r>
       <r>    1.9702    1.0000 </r>
       <r>   13.1142    0.0000 </r>
       <r>   13.3747    0.0000 </r>
       <r>   15.1962    0.0000 </r>
       <r>   13.9111    0.0000 </r>
      </set>
      <set comment="kpoint 91">
       <r>   -2.9565    1.0000 </r>
       <r>   -2.9197    1.0000 </r>
       <r>    1.3848    1.0000 </r>
       <r>    1.9445    1.0000 </r>
       <r>   13.5123    0.0000 </r>
       <r>   12.9726    0.0000 </r>
       <r>   15.8778    0.0000 </r>
       <r>   13.8905    0.0000 </r>
      </set>
      <set comment="kpoint 92">
       <r>   -2.9337    1.0000 </r>
       <r>   -2.9131    1.0000 </r>
       <r>    1.3261    1.0000 </r>
       <r>    1.9255    1.0000 </r>
       <r>   13.3644    0.0000 </r>
       <r>   12.5738    0.0000 </r>
       <r>   15.9396    0.0000 </r>
       <r>   14.4935    0.0000 </r>
      </set>
      <set comment="kpoint 93">
       <r>   -2.9145    1.0000 </r>
       <r>   -2.9085    1.0000 </r>
       <r>    1.2735    1.0000 </r>
       <r>    1.9194    1.0000 </r>
       <r>   13.5227    0.0000 </r>
       <r>   12.1006    0.0000 </r>
       <r>   16.5519    0.0000 </r>
       <r>   14.5664    0.0000 </r>
      </set>
      <set comment="kpoint 94">
       <r>   -2.8929    1.0000 </r>
       <r>   -2.9061    1.0000 </r>
       <r>    1.2352    1.0000 </r>
       <r>    1.9228    1.0000 </r>
       <r>   13.7318    0.0000 </r>
       <r>   11.6518    0.0000 </r>
       <r>   17.0267    0.0000 </r>
       <r>   14.6703    0.0000 </r>
      </set>
      <set comment="kpoint 95">
       <r>   -2.8777    1.0000 </r>
       <r>   -2.9061    1.0000 </r>
       <r>    1.2054    1.0000 </r>
       <r>    1.9357    1.0000 </r>
       <r>   11.2183    0.0000 </r>
       <r>   14.0667    0.0000 </r>
       <r>   17.3479    0.0000 </r>
       <r>   14.3702    0.0000 </r>
      </set>
      <set comment="kpoint 96">
       <r>   -2.8651    1.0000 </r>
       <r>   -2.9085    1.0000 </r>
       <r>    1.1873    1.0000 </r>
       <r>    1.9597    1.0000 </r>
       <r>   10.8062    0.0000 </r>
       <r>   14.2019    0.0000 </r>
       <r>   17.2650    0.0000 </r>
       <r>   13.8811    0.0000 </r>
      </set>
      <set comment="kpoint 97">
       <r>   -2.8651    1.0000 </r>
       <r>   -2.9085    1.0000 </r>
       <r>    1.1873    1.0000 </r>
       <r>    1.9597    1.0000 </r>
       <r>   10.8062    0.0000 </r>
       <r>   14.2019    0.0000 </r>
       <r>   17.2650    0.0000 </r>
       <r>   13.8811    0.0000 </r>
      </set>
      <set comment="kpoint 98">
       <r>   -2.9318    1.0000 </r>
       <r>   -2.8468    1.0000 </r>
       <r>    1.1376    1.0000 </r>
       <r>    2.0368    1.0000 </r>
       <r>   10.5339    0.0000 </r>
       <r>   14.3870    0.0000 </r>
       <r>   17.4131    0.0000 </r>
       <r>   13.6797    0.0000 </r>
      </set>
      <set comment="kpoint 99">
       <r>   -2.9949    1.0000 </r>
       <r>   -2.7907    1.0000 </r>
       <r>    1.0901    1.0000 </r>
       <r>    2.1199    1.0000 </r>
       <r>   10.1633    0.0000 </r>
       <r>   14.5274    0.0000 </r>
       <r>   17.0323    0.0000 </r>
       <r>   13.5509    0.0000 </r>
      </set>
      <set comment="kpoint 100">
       <r>   -3.0544    1.0000 </r>
       <r>   -2.7397    1.0000 </r>
       <r>    1.0450    1.0000 </r>
       <r>    2.2108    1.0000 </r>
       <r>    9.9255    0.0000 </r>
       <r>   14.5726    0.0000 </r>
       <r>   17.1131    0.0000 </r>
       <r>   13.3630    0.0000 </r>
      </set>
      <set comment="kpoint 101">
       <r>   -3.1105    1.0000 </r>
       <r>   -2.6978    1.0000 </r>
       <r>    1.0023    1.0000 </r>
       <r>    2.3015    1.0000 </r>
       <r>    9.6599    0.0000 </r>
       <r>   14.6637    0.0000 </r>
       <r>   16.7871    0.0000 </r>
       <r>   13.2509    0.0000 </r>
      </set>
      <set comment="kpoint 102">
       <r>   -3.1629    1.0000 </r>
       <r>   -2.6560    1.0000 </r>
       <r>    0.9621    1.0000 </r>
       <r>    2.3984    1.0000 </r>
       <r>    9.4463    0.0000 </r>
       <r>   14.6797    0.0000 </r>
       <r>   16.8070    0.0000 </r>
       <r>   13.1082    0.0000 </r>
      </set>
      <set comment="kpoint 103">
       <r>   -3.2117    1.0000 </r>
       <r>   -2.6189    1.0000 </r>
       <r>    0.9245    1.0000 </r>
       <r>    2.4969    1.0000 </r>
       <r>    9.2443    0.0000 </r>
       <r>   14.6804    0.0000 </r>
       <r>   16.7560    0.0000 </r>
       <r>   12.9863    0.0000 </r>
      </set>
      <set comment="kpoint 104">
       <r>   -3.2570    1.0000 </r>
       <r>   -2.5861    1.0000 </r>
       <r>    0.8896    1.0000 </r>
       <r>    2.5952    1.0000 </r>
       <r>    9.0560    0.0000 </r>
       <r>   14.6734    0.0000 </r>
       <r>   16.6023    0.0000 </r>
       <r>   12.8814    0.0000 </r>
      </set>
      <set comment="kpoint 105">
       <r>   -3.2986    1.0000 </r>
       <r>   -2.5573    1.0000 </r>
       <r>    0.8573    1.0000 </r>
       <r>    2.6909    1.0000 </r>
       <r>    8.8873    0.0000 </r>
       <r>   14.6267    0.0000 </r>
       <r>   16.4562    0.0000 </r>
       <r>   12.7706    0.0000 </r>
      </set>
      <set comment="kpoint 106">
       <r>   -3.3366    1.0000 </r>
       <r>   -2.5321    1.0000 </r>
       <r>    0.8277    1.0000 </r>
       <r>    2.7816    1.0000 </r>
       <r>    8.7408    0.0000 </r>
       <r>   14.5705    0.0000 </r>
       <r>   16.2498    0.0000 </r>
       <r>   12.6651    0.0000 </r>
      </set>
      <set comment="kpoint 107">
       <r>   -3.3709    1.0000 </r>
       <r>   -2.5101    1.0000 </r>
       <r>    0.8009    1.0000 </r>
       <r>    2.8651    1.0000 </r>
       <r>    8.6211    0.0000 </r>
       <r>   14.4929    0.0000 </r>
       <r>   16.0288    0.0000 </r>
       <r>   12.5626    0.0000 </r>
      </set>
      <set comment="kpoint 108">
       <r>   -3.4017    1.0000 </r>
       <r>   -2.4910    1.0000 </r>
       <r>    0.7768    1.0000 </r>
       <r>    2.9389    1.0000 </r>
       <r>    8.5322    0.0000 </r>
       <r>   14.4026    0.0000 </r>
       <r>   15.7757    0.0000 </r>
       <r>   12.4642    0.0000 </r>
      </set>
      <set comment="kpoint 109">
       <r>   -3.4288    1.0000 </r>
       <r>   -2.4745    1.0000 </r>
       <r>    0.7556    1.0000 </r>
       <r>    3.0010    1.0000 </r>
       <r>    8.4786    0.0000 </r>
       <r>   14.3026    0.0000 </r>
       <r>   15.4947    0.0000 </r>
       <r>   12.3708    0.0000 </r>
      </set>
      <set comment="kpoint 110">
       <r>   -3.4524    1.0000 </r>
       <r>   -2.4581    1.0000 </r>
       <r>    0.7372    1.0000 </r>
       <r>    3.0558    1.0000 </r>
       <r>    8.4631    0.0000 </r>
       <r>   14.1953    0.0000 </r>
       <r>   15.1515    0.0000 </r>
       <r>   12.2827    0.0000 </r>
      </set>
      <set comment="kpoint 111">
       <r>   -3.4723    1.0000 </r>
       <r>   -2.4450    1.0000 </r>
       <r>    0.7217    1.0000 </r>
       <r>    3.0042    1.0000 </r>
       <r>    8.5974    0.0000 </r>
       <r>   14.0830    0.0000 </r>
       <r>   14.8052    0.0000 </r>
[...]
        <r>  0.0081  0.0677  0.0000 </r>
       </set>
       <set comment="band 8">
        <r>  0.0205  0.0988  0.0000 </r>
        <r>  0.0205  0.0988  0.0000 </r>
       </set>
      </set>
      <set comment="kpoint 239">
       <set comment="band 1">
        <r>  0.2052  0.0442  0.0000 </r>
        <r>  0.2052  0.0442  0.0000 </r>
       </set>
       <set comment="band 2">
        <r>  0.1901  0.0533  0.0000 </r>
        <r>  0.1901  0.0533  0.0000 </r>
       </set>
       <set comment="band 3">
        <r>  0.0093  0.1612  0.0000 </r>
        <r>  0.0093  0.1612  0.0000 </r>
       </set>
       <set comment="band 4">
        <r>  0.0006  0.2003  0.0000 </r>
        <r>  0.0006  0.2003  0.0000 </r>
       </set>
       <set comment="band 5">
        <r>  0.0248  0.0715  0.0000 </r>
        <r>  0.0248  0.0715  0.0000 </r>
       </set>
       <set comment="band 6">
        <r>  0.0663  0.1166  0.0000 </r>
        <r>  0.0663  0.1166  0.0000 </r>
       </set>
       <set comment="band 7">
        <r>  0.0075  0.0661  0.0000 </r>
        <r>  0.0075  0.0661  0.0000 </r>
       </set>
       <set comment="band 8">
        <r>  0.0201  0.0958  0.0000 </r>
        <r>  0.0201  0.0958  0.0000 </r>
       </set>
      </set>
      <set comment="kpoint 240">
       <set comment="band 1">
        <r>  0.2041  0.0450  0.0000 </r>
        <r>  0.2041  0.0450  0.0000 </r>
       </set>
       <set comment="band 2">
        <r>  0.1920  0.0522  0.0000 </r>
        <r>  0.1920  0.0522  0.0000 </r>
       </set>
       <set comment="band 3">
        <r>  0.0087  0.1622  0.0000 </r>
        <r>  0.0087  0.1622  0.0000 </r>
       </set>
       <set comment="band 4">
        <r>  0.0006  0.1995  0.0000 </r>
        <r>  0.0006  0.1995  0.0000 </r>
       </set>
       <set comment="band 5">
        <r>  0.0262  0.0701  0.0000 </r>
        <r>  0.0262  0.0701  0.0000 </r>
       </set>
       <set comment="band 6">
        <r>  0.0634  0.1164  0.0000 </r>
        <r>  0.0634  0.1164  0.0000 </r>
       </set>
       <set comment="band 7">
        <r>  0.0077  0.0670  0.0000 </r>
        <r>  0.0077  0.0670  0.0000 </r>
       </set>
       <set comment="band 8">
        <r>  0.0199  0.0935  0.0000 </r>
        <r>  0.0199  0.0935  0.0000 </r>
       </set>
      </set>
      <set comment="kpoint 241">
       <set comment="band 1">
        <r>  0.2031  0.0456  0.0000 </r>
        <r>  0.2031  0.0456  0.0000 </r>
       </set>
       <set comment="band 2">
        <r>  0.1935  0.0513  0.0000 </r>
        <r>  0.1935  0.0513  0.0000 </r>
       </set>
       <set comment="band 3">
        <r>  0.0082  0.1633  0.0000 </r>
        <r>  0.0082  0.1633  0.0000 </r>
       </set>
       <set comment="band 4">
        <r>  0.0005  0.1985  0.0000 </r>
        <r>  0.0005  0.1985  0.0000 </r>
       </set>
       <set comment="band 5">
        <r>  0.0277  0.0690  0.0000 </r>
        <r>  0.0277  0.0690  0.0000 </r>
       </set>
       <set comment="band 6">
        <r>  0.0631  0.1170  0.0000 </r>
        <r>  0.0631  0.1170  0.0000 </r>
       </set>
       <set comment="band 7">
        <r>  0.0070  0.0669  0.0000 </r>
        <r>  0.0070  0.0669  0.0000 </r>
       </set>
       <set comment="band 8">
        <r>  0.0193  0.0907  0.0000 </r>
        <r>  0.0193  0.0907  0.0000 </r>
       </set>
      </set>
      <set comment="kpoint 242">
       <set comment="band 1">
        <r>  0.2022  0.0461  0.0000 </r>
        <r>  0.2022  0.0461  0.0000 </r>
       </set>
       <set comment="band 2">
        <r>  0.1946  0.0506  0.0000 </r>
        <r>  0.1946  0.0506  0.0000 </r>
       </set>
       <set comment="band 3">
        <r>  0.0078  0.1645  0.0000 </r>
        <r>  0.0078  0.1645  0.0000 </r>
       </set>
       <set comment="band 4">
        <r>  0.0004  0.1973  0.0000 </r>
        <r>  0.0004  0.1973  0.0000 </r>
       </set>
       <set comment="band 5">
        <r>  0.0290  0.0682  0.0000 </r>
        <r>  0.0290  0.0682  0.0000 </r>
       </set>
       <set comment="band 6">
        <r>  0.0626  0.1167  0.0000 </r>
        <r>  0.0626  0.1167  0.0000 </r>
       </set>
       <set comment="band 7">
        <r>  0.0067  0.0669  0.0000 </r>
        <r>  0.0067  0.0669  0.0000 </r>
       </set>
       <set comment="band 8">
        <r>  0.0184  0.0890  0.0000 </r>
        <r>  0.0184  0.0890  0.0000 </r>
       </set>
      </set>
      <set comment="kpoint 243">
       <set comment="band 1">
        <r>  0.2014  0.0465  0.0000 </r>
        <r>  0.2014  0.0465  0.0000 </r>
       </set>
       <set comment="band 2">
        <r>  0.1954  0.0501  0.0000 </r>
        <r>  0.1954  0.0501  0.0000 </r>
       </set>
       <set comment="band 3">
        <r>  0.0075  0.1660  0.0000 </r>
        <r>  0.0075  0.1660  0.0000 </r>
       </set>
       <set comment="band 4">
        <r>  0.0003  0.1965  0.0000 </r>
        <r>  0.0003  0.1965  0.0000 </r>
       </set>
       <set comment="band 5">
        <r>  0.0302  0.0679  0.0000 </r>
        <r>  0.0302  0.0679  0.0000 </r>
       </set>
       <set comment="band 6">
        <r>  0.0603  0.1150  0.0000 </r>
        <r>  0.0603  0.1150  0.0000 </r>
       </set>
       <set comment="band 7">
        <r>  0.0070  0.0680  0.0000 </r>
        <r>  0.0070  0.0680  0.0000 </r>
       </set>
       <set comment="band 8">
        <r>  0.0180  0.0891  0.0000 </r>
        <r>  0.0180  0.0891  0.0000 </r>
       </set>
      </set>
      <set comment="kpoint 244">
       <set comment="band 1">
        <r>  0.2008  0.0468  0.0000 </r>
        <r>  0.2008  0.0468  0.0000 </r>
       </set>
       <set comment="band 2">
        <r>  0.1958  0.0498  0.0000 </r>
        <r>  0.1958  0.0498  0.0000 </r>
       </set>
       <set comment="band 3">
        <r>  0.0073  0.1676  0.0000 </r>
        <r>  0.0073  0.1676  0.0000 </r>
       </set>
       <set comment="band 4">
        <r>  0.0003  0.1954  0.0000 </r>
        <r>  0.0003  0.1954  0.0000 </r>
       </set>
       <set comment="band 5">
        <r>  0.0314  0.0677  0.0000 </r>
        <r>  0.0314  0.0677  0.0000 </r>
       </set>
       <set comment="band 6">
        <r>  0.0601  0.1131  0.0000 </r>
        <r>  0.0601  0.1131  0.0000 </r>
       </set>
       <set comment="band 7">
        <r>  0.0070  0.0681  0.0000 </r>
        <r>  0.0070  0.0681  0.0000 </r>
       </set>
       <set comment="band 8">
        <r>  0.0169  0.0893  0.0000 </r>
        <r>  0.0169  0.0893  0.0000 </r>
       </set>
      </set>
      <set comment="kpoint 245">
       <set comment="band 1">
        <r>  0.2003  0.0471  0.0000 </r>
        <r>  0.2003  0.0471  0.0000 </r>
       </set>
       <set comment="band 2">
        <r>  0.1960  0.0496  0.0000 </r>
        <r>  0.1960  0.0496  0.0000 </r>
       </set>
       <set comment="band 3">
        <r>  0.0071  0.1694  0.0000 </r>
        <r>  0.0071  0.1694  0.0000 </r>
       </set>
       <set comment="band 4">
        <r>  0.0002  0.1942  0.0000 </r>
        <r>  0.0002  0.1942  0.0000 </r>
       </set>
       <set comment="band 5">
        <r>  0.0326  0.0681  0.0000 </r>
        <r>  0.0326  0.0681  0.0000 </r>
       </set>
       <set comment="band 6">
        <r>  0.0606  0.1100  0.0000 </r>
        <r>  0.0606  0.1100  0.0000 </r>
       </set>
       <set comment="band 7">
        <r>  0.0068  0.0687  0.0000 </r>
        <r>  0.0068  0.0687  0.0000 </r>
       </set>
       <set comment="band 8">
        <r>  0.0157  0.0903  0.0000 </r>
        <r>  0.0157  0.0903  0.0000 </r>
       </set>
      </set>
      <set comment="kpoint 246">
       <set comment="band 1">
        <r>  0.1998  0.0473  0.0000 </r>
        <r>  0.1998  0.0473  0.0000 </r>
       </set>
       <set comment="band 2">
        <r>  0.1960  0.0495  0.0000 </r>
        <r>  0.1960  0.0495  0.0000 </r>
       </set>
       <set comment="band 3">
        <r>  0.0070  0.1713  0.0000 </r>
        <r>  0.0070  0.1713  0.0000 </r>
       </set>
       <set comment="band 4">
        <r>  0.0002  0.1930  0.0000 </r>
        <r>  0.0002  0.1930  0.0000 </r>
       </set>
       <set comment="band 5">
        <r>  0.0338  0.0684  0.0000 </r>
        <r>  0.0338  0.0684  0.0000 </r>
       </set>
       <set comment="band 6">
        <r>  0.0607  0.1057  0.0000 </r>
        <r>  0.0607  0.1057  0.0000 </r>
       </set>
       <set comment="band 7">
        <r>  0.0070  0.0689  0.0000 </r>
        <r>  0.0070  0.0689  0.0000 </r>
       </set>
       <set comment="band 8">
        <r>  0.0142  0.0913  0.0000 </r>
        <r>  0.0142  0.0914  0.0000 </r>
       </set>
      </set>
      <set comment="kpoint 247">
       <set comment="band 1">
        <r>  0.1995  0.0474  0.0000 </r>
        <r>  0.1995  0.0474  0.0000 </r>
       </set>
       <set comment="band 2">
        <r>  0.1957  0.0495  0.0000 </r>
        <r>  0.1957  0.0495  0.0000 </r>
       </set>
       <set comment="band 3">
        <r>  0.0068  0.1734  0.0000 </r>
        <r>  0.0068  0.1734  0.0000 </r>
       </set>
       <set comment="band 4">
        <r>  0.0001  0.1919  0.0000 </r>
        <r>  0.0001  0.1919  0.0000 </r>
       </set>
       <set comment="band 5">
        <r>  0.0348  0.0695  0.0000 </r>
        <r>  0.0348  0.0695  0.0000 </r>
       </set>
       <set comment="band 6">
        <r>  0.0605  0.1008  0.0000 </r>
        <r>  0.0605  0.1008  0.0000 </r>
       </set>
       <set comment="band 7">
        <r>  0.0073  0.0693  0.0000 </r>
        <r>  0.0073  0.0693  0.0000 </r>
       </set>
       <set comment="band 8">
        <r>  0.0130  0.0940  0.0000 </r>
        <r>  0.0130  0.0940  0.0000 </r>
       </set>
      </set>
      <set comment="kpoint 248">
       <set comment="band 1">
        <r>  0.1992  0.0475  0.0000 </r>
        <r>  0.1992  0.0475  0.0000 </r>
       </set>
       <set comment="band 2">
        <r>  0.1953  0.0495  0.0000 </r>
        <r>  0.1953  0.0495  0.0000 </r>
       </set>
       <set comment="band 3">
        <r>  0.0066  0.1756  0.0000 </r>
        <r>  0.0066  0.1756  0.0000 </r>
       </set>
       <set comment="band 4">
        <r>  0.0001  0.1909  0.0000 </r>
        <r>  0.0001  0.1909  0.0000 </r>
       </set>
       <set comment="band 5">
        <r>  0.0359  0.0710  0.0000 </r>
        <r>  0.0359  0.0710  0.0000 </r>
       </set>
       <set comment="band 6">
        <r>  0.0608  0.0942  0.0000 </r>
        <r>  0.0608  0.0942  0.0000 </r>
       </set>
       <set comment="band 7">
        <r>  0.0074  0.0696  0.0000 </r>
        <r>  0.0074  0.0696  0.0000 </r>
       </set>
       <set comment="band 8">
        <r>  0.0117  0.0974  0.0000 </r>
        <r>  0.0117  0.0974  0.0000 </r>
       </set>
      </set>
      <set comment="kpoint 249">
       <set comment="band 1">
        <r>  0.1990  0.0476  0.0000 </r>
        <r>  0.1990  0.0476  0.0000 </r>
       </set>
       <set comment="band 2">
        <r>  0.1947  0.0497  0.0000 </r>
        <r>  0.1947  0.0497  0.0000 </r>
       </set>
       <set comment="band 3">
        <r>  0.0064  0.1779  0.0000 </r>
        <r>  0.0064  0.1779  0.0000 </r>
       </set>
       <set comment="band 4">
        <r>  0.0001  0.1900  0.0000 </r>
        <r>  0.0001  0.1900  0.0000 </r>
       </set>
       <set comment="band 5">
        <r>  0.0369  0.0726  0.0000 </r>
        <r>  0.0369  0.0726  0.0000 </r>
       </set>
       <set comment="band 6">
        <r>  0.0605  0.0880  0.0000 </r>
        <r>  0.0605  0.0880  0.0000 </r>
       </set>
       <set comment="band 7">
        <r>  0.0080  0.0686  0.0000 </r>
        <r>  0.0080  0.0686  0.0000 </r>
       </set>
       <set comment="band 8">
        <r>  0.0103  0.1006  0.0000 </r>
        <r>  0.0103  0.1006  0.0000 </r>
       </set>
      </set>
      <set comment="kpoint 250">
       <set comment="band 1">
        <r>  0.1988  0.0476  0.0000 </r>
        <r>  0.1988  0.0476  0.0000 </r>
       </set>
       <set comment="band 2">
        <r>  0.1940  0.0498  0.0000 </r>
        <r>  0.1940  0.0498  0.0000 </r>
       </set>
       <set comment="band 3">
        <r>  0.0062  0.1803  0.0000 </r>
        <r>  0.0062  0.1803  0.0000 </r>
       </set>
       <set comment="band 4">
        <r>  0.0000  0.1893  0.0000 </r>
        <r>  0.0000  0.1893  0.0000 </r>
       </set>
       <set comment="band 5">
        <r>  0.0380  0.0746  0.0000 </r>
        <r>  0.0380  0.0746  0.0000 </r>
       </set>
       <set comment="band 6">
        <r>  0.0603  0.0818  0.0000 </r>
        <r>  0.0603  0.0818  0.0000 </r>
       </set>
       <set comment="band 7">
        <r>  0.0084  0.0688  0.0000 </r>
        <r>  0.0084  0.0688  0.0000 </r>
       </set>
       <set comment="band 8">
        <r>  0.0091  0.1043  0.0000 </r>
        <r>  0.0091  0.1043  0.0000 </r>
       </set>
      </set>
      <set comment="kpoint 251">
       <set comment="band 1">
        <r>  0.1987  0.0476  0.0000 </r>
        <r>  0.1987  0.0476  0.0000 </r>
       </set>
       <set comment="band 2">
        <r>  0.1933  0.0501  0.0000 </r>
        <r>  0.1933  0.0501  0.0000 </r>
       </set>
       <set comment="band 3">
        <r>  0.0059  0.1826  0.0000 </r>
        <r>  0.0059  0.1826  0.0000 </r>
       </set>
       <set comment="band 4">
        <r>  0.0000  0.1889  0.0000 </r>
        <r>  0.0000  0.1889  0.0000 </r>
       </set>
       <set comment="band 5">
        <r>  0.0390  0.0767  0.0000 </r>
        <r>  0.0390  0.0767  0.0000 </r>
       </set>
       <set comment="band 6">
        <r>  0.0601  0.0756  0.0000 </r>
        <r>  0.0601  0.0756  0.0000 </r>
       </set>
       <set comment="band 7">
        <r>  0.0090  0.0692  0.0000 </r>
        <r>  0.0090  0.0692  0.0000 </r>
       </set>
       <set comment="band 8">
        <r>  0.0080  0.1081  0.0000 </r>
        <r>  0.0080  0.1081  0.0000 </r>
       </set>
      </set>
      <set comment="kpoint 252">
       <set comment="band 1">
        <r>  0.1986  0.0477  0.0000 </r>
        <r>  0.1986  0.0477  0.0000 </r>
       </set>
       <set comment="band 2">
        <r>  0.1925  0.0503  0.0000 </r>
        <r>  0.1925  0.0503  0.0000 </r>
       </set>
       <set comment="band 3">
        <r>  0.0056  0.1847  0.0000 </r>
        <r>  0.0056  0.1847  0.0000 </r>
       </set>
       <set comment="band 4">
        <r>  0.0000  0.1888  0.0000 </r>
        <r>  0.0000  0.1888  0.0000 </r>
       </set>
       <set comment="band 5">
        <r>  0.0402  0.0782  0.0000 </r>
        <r>  0.0402  0.0782  0.0000 </r>
       </set>
       <set comment="band 6">
        <r>  0.0602  0.0672  0.0000 </r>
        <r>  0.0602  0.0672  0.0000 </r>
       </set>
       <set comment="band 7">
        <r>  0.0093  0.0696  0.0000 </r>
        <r>  0.0093  0.0696  0.0000 </r>
       </set>
       <set comment="band 8">
        <r>  0.0069  0.1113  0.0000 </r>
        <r>  0.0069  0.1114  0.0000 </r>
       </set>
      </set>
      <set comment="kpoint 253">
       <set comment="band 1">
        <r>  0.1985  0.0477  0.0000 </r>
        <r>  0.1985  0.0477  0.0000 </r>
       </set>
       <set comment="band 2">
        <r>  0.1917  0.0505  0.0000 </r>
        <r>  0.1917  0.0505  0.0000 </r>
       </set>
       <set comment="band 3">
        <r>  0.0052  0.1867  0.0000 </r>
        <r>  0.0052  0.1867  0.0000 </r>
       </set>
       <set comment="band 4">
        <r>  0.0001  0.1891  0.0000 </r>
        <r>  0.0001  0.1891  0.0000 </r>
       </set>
       <set comment="band 5">
        <r>  0.0411  0.0796  0.0000 </r>
        <r>  0.0411  0.0796  0.0000 </r>
       </set>
       <set comment="band 6">
        <r>  0.0600  0.0617  0.0000 </r>
        <r>  0.0600  0.0617  0.0000 </r>
       </set>
       <set comment="band 7">
        <r>  0.0099  0.0701  0.0000 </r>
        <r>  0.0099  0.0701  0.0000 </r>
       </set>
       <set comment="band 8">
        <r>  0.0063  0.1139  0.0000 </r>
        <r>  0.0063  0.1139  0.0000 </r>
       </set>
      </set>
      <set comment="kpoint 254">
       <set comment="band 1">
        <r>  0.1985  0.0477  0.0000 </r>
        <r>  0.1985  0.0477  0.0000 </r>
       </set>
       <set comment="band 2">
        <r>  0.1909  0.0508  0.0000 </r>
        <r>  0.1909  0.0508  0.0000 </r>
       </set>
       <set comment="band 3">
        <r>  0.0048  0.1884  0.0000 </r>
        <r>  0.0048  0.1884  0.0000 </r>
       </set>
       <set comment="band 4">
        <r>  0.0001  0.1897  0.0000 </r>
        <r>  0.0001  0.1897  0.0000 </r>
       </set>
       <set comment="band 5">
        <r>  0.0420  0.0801  0.0000 </r>
        <r>  0.0420  0.0801  0.0000 </r>
       </set>
       <set comment="band 6">
        <r>  0.0597  0.0571  0.0000 </r>
        <r>  0.0597  0.0571  0.0000 </r>
       </set>
       <set comment="band 7">
        <r>  0.0107  0.0706  0.0000 </r>
        <r>  0.0107  0.0706  0.0000 </r>
       </set>
       <set comment="band 8">
        <r>  0.0058  0.1159  0.0000 </r>
        <r>  0.0058  0.1159  0.0000 </r>
       </set>
      </set>
      <set comment="kpoint 255">
       <set comment="band 1">
        <r>  0.1986  0.0477  0.0000 </r>
        <r>  0.1986  0.0477  0.0000 </r>
       </set>
       <set comment="band 2">
        <r>  0.1901  0.0510  0.0000 </r>
        <r>  0.1901  0.0510  0.0000 </r>
       </set>
       <set comment="band 3">
        <r>  0.0044  0.1899  0.0000 </r>
        <r>  0.0044  0.1899  0.0000 </r>
       </set>
       <set comment="band 4">
        <r>  0.0002  0.1905  0.0000 </r>
        <r>  0.0002  0.1905  0.0000 </r>
       </set>
       <set comment="band 5">
        <r>  0.0428  0.0797  0.0000 </r>
        <r>  0.0428  0.0797  0.0000 </r>
       </set>
       <set comment="band 6">
        <r>  0.0593  0.0535  0.0000 </r>
        <r>  0.0593  0.0535  0.0000 </r>
       </set>
       <set comment="band 7">
        <r>  0.0116  0.0712  0.0000 </r>
        <r>  0.0116  0.0712  0.0000 </r>
       </set>
       <set comment="band 8">
        <r>  0.0053  0.1175  0.0000 </r>
        <r>  0.0053  0.1175  0.0000 </r>
       </set>
      </set>
      <set comment="kpoint 256">
       <set comment="band 1">
        <r>  0.1986  0.0477  0.0000 </r>
        <r>  0.1986  0.0477  0.0000 </r>
       </set>
       <set comment="band 2">
        <r>  0.1893  0.0513  0.0000 </r>
        <r>  0.1893  0.0513  0.0000 </r>
       </set>
       <set comment="band 3">
        <r>  0.0040  0.1911  0.0000 </r>
        <r>  0.0040  0.1911  0.0000 </r>
       </set>
       <set comment="band 4">
        <r>  0.0003  0.1916  0.0000 </r>
        <r>  0.0003  0.1916  0.0000 </r>
       </set>
       <set comment="band 5">
        <r>  0.0436  0.0786  0.0000 </r>
        <r>  0.0436  0.0786  0.0000 </r>
       </set>
       <set comment="band 6">
        <r>  0.0589  0.0510  0.0000 </r>
        <r>  0.0589  0.0510  0.0000 </r>
       </set>
       <set comment="band 7">
        <r>  0.0126  0.0720  0.0000 </r>
        <r>  0.0126  0.0720  0.0000 </r>
       </set>
       <set comment="band 8">
        <r>  0.0048  0.1188  0.0000 </r>
        <r>  0.0048  0.1188  0.0000 </r>
       </set>
      </set>
     </set>
    </set>
   </array>
  </projected>
 </calculation>
 <structure name="finalpos" >
  <crystal>
   <varray name="basis" >
    <v>       2.71308725       2.71308725       0.00000000 </v>
    <v>       0.00000000       2.71308725       2.71308725 </v>
    <v>       2.71308725       0.00000000       2.71308725 </v>
   </varray>
   <i name="volume">     39.94121528 </i>
   <varray name="rec_basis" >
    <v>       0.18429190       0.18429190      -0.18429190 </v>
    <v>      -0.18429190       0.18429190       0.18429190 </v>
    <v>       0.18429190      -0.18429190       0.18429190 </v>
   </varray>
  </crystal>
  <varray name="positions" >
   <v>       0.00000000       0.00000000       0.00000000 </v>
   <v>       0.25000000       0.25000000       0.25000000 </v>
  </varray>
 </structure>
</modeling>
