   2   2   1   0
  0.1997061E+02  0.3836885E-09  0.3836885E-09  0.3836885E-09  0.5000000E-15
  1.000000000000000E-004
  CAR 
 unknown system                          
     20.00000000    -20.00000000 2001      5.50000488      1.00000000
    -20.000  0.0000E+00  0.0000E+00
    -19.980  0.0000E+00  0.0000E+00
    -19.960  0.0000E+00  0.0000E+00
    -19.940  0.0000E+00  0.0000E+00
    -19.920  0.0000E+00  0.0000E+00
    -19.900  0.0000E+00  0.0000E+00
    -19.880  0.0000E+00  0.0000E+00
    -19.860  0.0000E+00  0.0000E+00
    -19.840  0.0000E+00  0.0000E+00
    -19.820  0.0000E+00  0.0000E+00
    -19.800  0.0000E+00  0.0000E+00
    -19.780  0.0000E+00  0.0000E+00
    -19.760  0.0000E+00  0.0000E+00
    -19.740  0.0000E+00  0.0000E+00
    -19.720  0.0000E+00  0.0000E+00
    -19.700  0.0000E+00  0.0000E+00
    -19.680  0.0000E+00  0.0000E+00
    -19.660  0.0000E+00  0.0000E+00
    -19.640  0.0000E+00  0.0000E+00
    -19.620  0.0000E+00  0.0000E+00
    -19.600  0.0000E+00  0.0000E+00
    -19.580  0.0000E+00  0.0000E+00
    -19.560  0.0000E+00  0.0000E+00
    -19.540  0.0000E+00  0.0000E+00
    -19.520  0.0000E+00  0.0000E+00
    -19.500  0.0000E+00  0.0000E+00
    -19.480  0.0000E+00  0.0000E+00
    -19.460  0.0000E+00  0.0000E+00
    -19.440  0.0000E+00  0.0000E+00
    -19.420  0.0000E+00  0.0000E+00
    -19.400  0.0000E+00  0.0000E+00
    -19.380  0.0000E+00  0.0000E+00
    -19.360  0.0000E+00  0.0000E+00
    -19.340  0.0000E+00  0.0000E+00
    -19.320  0.0000E+00  0.0000E+00
    -19.300  0.0000E+00  0.0000E+00
    -19.280  0.0000E+00  0.0000E+00
    -19.260  0.0000E+00  0.0000E+00
    -19.240  0.0000E+00  0.0000E+00
    -19.220  0.0000E+00  0.0000E+00
    -19.200  0.0000E+00  0.0000E+00
    -19.180  0.0000E+00  0.0000E+00
    -19.160  0.0000E+00  0.0000E+00
    -19.140  0.0000E+00  0.0000E+00
    -19.120  0.0000E+00  0.0000E+00
    -19.100  0.0000E+00  0.0000E+00
    -19.080  0.0000E+00  0.0000E+00
    -19.060  0.0000E+00  0.0000E+00
    -19.040  0.0000E+00  0.0000E+00
    -19.020  0.0000E+00  0.0000E+00
    -19.000  0.0000E+00  0.0000E+00
    -18.980  0.0000E+00  0.0000E+00
    -18.960  0.0000E+00  0.0000E+00
    -18.940  0.0000E+00  0.0000E+00
    -18.920  0.0000E+00  0.0000E+00
    -18.900  0.0000E+00  0.0000E+00
    -18.880  0.0000E+00  0.0000E+00
    -18.860  0.0000E+00  0.0000E+00
    -18.840  0.0000E+00  0.0000E+00
    -18.820  0.0000E+00  0.0000E+00
    -18.800  0.0000E+00  0.0000E+00
    -18.780  0.0000E+00  0.0000E+00
    -18.760  0.0000E+00  0.0000E+00
    -18.740  0.0000E+00  0.0000E+00
    -18.720  0.0000E+00  0.0000E+00
    -18.700  0.0000E+00  0.0000E+00
    -18.680  0.0000E+00  0.0000E+00
    -18.660  0.0000E+00  0.0000E+00
    -18.640  0.0000E+00  0.0000E+00
    -18.620  0.0000E+00  0.0000E+00
    -18.600  0.0000E+00  0.0000E+00
    -18.580  0.0000E+00  0.0000E+00
    -18.560  0.0000E+00  0.0000E+00
    -18.540  0.0000E+00  0.0000E+00
    -18.520  0.0000E+00  0.0000E+00
    -18.500  0.0000E+00  0.0000E+00
    -18.480  0.0000E+00  0.0000E+00
    -18.460  0.0000E+00  0.0000E+00
    -18.440  0.0000E+00  0.0000E+00
    -18.420  0.0000E+00  0.0000E+00
    -18.400  0.0000E+00  0.0000E+00
    -18.380  0.0000E+00  0.0000E+00
    -18.360  0.0000E+00  0.0000E+00
    -18.340  0.0000E+00  0.0000E+00
    -18.320  0.0000E+00  0.0000E+00
    -18.300  0.0000E+00  0.0000E+00
    -18.280  0.0000E+00  0.0000E+00
    -18.260  0.0000E+00  0.0000E+00
    -18.240  0.0000E+00  0.0000E+00
    -18.220  0.0000E+00  0.0000E+00
    -18.200  0.0000E+00  0.0000E+00
    -18.180  0.0000E+00  0.0000E+00
    -18.160  0.0000E+00  0.0000E+00
    -18.140  0.0000E+00  0.0000E+00
    -18.120  0.0000E+00  0.0000E+00
    -18.100  0.0000E+00  0.0000E+00
    -18.080  0.0000E+00  0.0000E+00
    -18.060  0.0000E+00  0.0000E+00
    -18.040  0.0000E+00  0.0000E+00
    -18.020  0.0000E+00  0.0000E+00
    -18.000  0.0000E+00  0.0000E+00
    -17.980  0.0000E+00  0.0000E+00
    -17.960  0.0000E+00  0.0000E+00
    -17.940  0.0000E+00  0.0000E+00
    -17.920  0.0000E+00  0.0000E+00
    -17.900  0.0000E+00  0.0000E+00
    -17.880  0.0000E+00  0.0000E+00
    -17.860  0.0000E+00  0.0000E+00
    -17.840  0.0000E+00  0.0000E+00
    -17.820  0.0000E+00  0.0000E+00
    -17.800  0.0000E+00  0.0000E+00
    -17.780  0.0000E+00  0.0000E+00
    -17.760  0.0000E+00  0.0000E+00
    -17.740  0.0000E+00  0.0000E+00
    -17.720  0.0000E+00  0.0000E+00
    -17.700  0.0000E+00  0.0000E+00
    -17.680  0.0000E+00  0.0000E+00
    -17.660  0.0000E+00  0.0000E+00
    -17.640  0.0000E+00  0.0000E+00
    -17.620  0.0000E+00  0.0000E+00
    -17.600  0.0000E+00  0.0000E+00
    -17.580  0.0000E+00  0.0000E+00
    -17.560  0.0000E+00  0.0000E+00
    -17.540  0.0000E+00  0.0000E+00
    -17.520  0.0000E+00  0.0000E+00
    -17.500  0.0000E+00  0.0000E+00
    -17.480  0.0000E+00  0.0000E+00
    -17.460  0.0000E+00  0.0000E+00
    -17.440  0.0000E+00  0.0000E+00
    -17.420  0.0000E+00  0.0000E+00
    -17.400  0.0000E+00  0.0000E+00
    -17.380  0.0000E+00  0.0000E+00
    -17.360  0.0000E+00  0.0000E+00
    -17.340  0.0000E+00  0.0000E+00
    -17.320  0.0000E+00  0.0000E+00
    -17.300  0.0000E+00  0.0000E+00
    -17.280  0.0000E+00  0.0000E+00
    -17.260  0.0000E+00  0.0000E+00
    -17.240  0.0000E+00  0.0000E+00
    -17.220  0.0000E+00  0.0000E+00
    -17.200  0.0000E+00  0.0000E+00
    -17.180  0.0000E+00  0.0000E+00
    -17.160  0.0000E+00  0.0000E+00
    -17.140  0.0000E+00  0.0000E+00
    -17.120  0.0000E+00  0.0000E+00
    -17.100  0.0000E+00  0.0000E+00
    -17.080  0.0000E+00  0.0000E+00
    -17.060  0.0000E+00  0.0000E+00
    -17.040  0.0000E+00  0.0000E+00
    -17.020  0.0000E+00  0.0000E+00
    -17.000  0.0000E+00  0.0000E+00
    -16.980  0.0000E+00  0.0000E+00
    -16.960  0.0000E+00  0.0000E+00
    -16.940  0.0000E+00  0.0000E+00
    -16.920  0.0000E+00  0.0000E+00
    -16.900  0.0000E+00  0.0000E+00
    -16.880  0.0000E+00  0.0000E+00
    -16.860  0.0000E+00  0.0000E+00
    -16.840  0.0000E+00  0.0000E+00
    -16.820  0.0000E+00  0.0000E+00
    -16.800  0.0000E+00  0.0000E+00
    -16.780  0.0000E+00  0.0000E+00
    -16.760  0.0000E+00  0.0000E+00
    -16.740  0.0000E+00  0.0000E+00
    -16.720  0.0000E+00  0.0000E+00
    -16.700  0.0000E+00  0.0000E+00
    -16.680  0.0000E+00  0.0000E+00
    -16.660  0.0000E+00  0.0000E+00
    -16.640  0.0000E+00  0.0000E+00
    -16.620  0.0000E+00  0.0000E+00
    -16.600  0.0000E+00  0.0000E+00
    -16.580  0.0000E+00  0.0000E+00
    -16.560  0.0000E+00  0.0000E+00
    -16.540  0.0000E+00  0.0000E+00
    -16.520  0.0000E+00  0.0000E+00
    -16.500  0.0000E+00  0.0000E+00
    -16.480  0.0000E+00  0.0000E+00
    -16.460  0.0000E+00  0.0000E+00
    -16.440  0.0000E+00  0.0000E+00
    -16.420  0.0000E+00  0.0000E+00
    -16.400  0.0000E+00  0.0000E+00
    -16.380  0.0000E+00  0.0000E+00
    -16.360  0.0000E+00  0.0000E+00
    -16.340  0.0000E+00  0.0000E+00
    -16.320  0.0000E+00  0.0000E+00
    -16.300  0.0000E+00  0.0000E+00
    -16.280  0.0000E+00  0.0000E+00
    -16.260  0.0000E+00  0.0000E+00
    -16.240  0.0000E+00  0.0000E+00
    -16.220  0.0000E+00  0.0000E+00
    -16.200  0.0000E+00  0.0000E+00
    -16.180  0.0000E+00  0.0000E+00
    -16.160  0.0000E+00  0.0000E+00
    -16.140  0.0000E+00  0.0000E+00
    -16.120  0.0000E+00  0.0000E+00
    -16.100  0.0000E+00  0.0000E+00
    -16.080  0.0000E+00  0.0000E+00
    -16.060  0.0000E+00  0.0000E+00
    -16.040  0.0000E+00  0.0000E+00
    -16.020  0.0000E+00  0.0000E+00
    -16.000  0.0000E+00  0.0000E+00
    -15.980  0.0000E+00  0.0000E+00
    -15.960  0.0000E+00  0.0000E+00
    -15.940  0.0000E+00  0.0000E+00
    -15.920  0.0000E+00  0.0000E+00
    -15.900  0.0000E+00  0.0000E+00
    -15.880  0.0000E+00  0.0000E+00
    -15.860  0.0000E+00  0.0000E+00
    -15.840  0.0000E+00  0.0000E+00
    -15.820  0.0000E+00  0.0000E+00
    -15.800  0.0000E+00  0.0000E+00
    -15.780  0.0000E+00  0.0000E+00
    -15.760  0.0000E+00  0.0000E+00
    -15.740  0.0000E+00  0.0000E+00
    -15.720  0.0000E+00  0.0000E+00
    -15.700  0.0000E+00  0.0000E+00
    -15.680  0.0000E+00  0.0000E+00
    -15.660  0.0000E+00  0.0000E+00
    -15.640  0.0000E+00  0.0000E+00
    -15.620  0.0000E+00  0.0000E+00
    -15.600  0.0000E+00  0.0000E+00
    -15.580  0.0000E+00  0.0000E+00
    -15.560  0.0000E+00  0.0000E+00
    -15.540  0.0000E+00  0.0000E+00
    -15.520  0.0000E+00  0.0000E+00
    -15.500  0.0000E+00  0.0000E+00
    -15.480  0.0000E+00  0.0000E+00
    -15.460  0.0000E+00  0.0000E+00
    -15.440  0.0000E+00  0.0000E+00
    -15.420  0.0000E+00  0.0000E+00
    -15.400  0.0000E+00  0.0000E+00
    -15.380  0.0000E+00  0.0000E+00
    -15.360  0.0000E+00  0.0000E+00
    -15.340  0.0000E+00  0.0000E+00
    -15.320  0.0000E+00  0.0000E+00
    -15.300  0.0000E+00  0.0000E+00
    -15.280  0.0000E+00  0.0000E+00
    -15.260  0.0000E+00  0.0000E+00
    -15.240  0.0000E+00  0.0000E+00
    -15.220  0.0000E+00  0.0000E+00
    -15.200  0.0000E+00  0.0000E+00
    -15.180  0.0000E+00  0.0000E+00
    -15.160  0.0000E+00  0.0000E+00
    -15.140  0.0000E+00  0.0000E+00
    -15.120  0.0000E+00  0.0000E+00
    -15.100  0.0000E+00  0.0000E+00
    -15.080  0.0000E+00  0.0000E+00
    -15.060  0.0000E+00  0.0000E+00
    -15.040  0.0000E+00  0.0000E+00
    -15.020  0.0000E+00  0.0000E+00
    -15.000  0.0000E+00  0.0000E+00
    -14.980  0.0000E+00  0.0000E+00
    -14.960  0.0000E+00  0.0000E+00
    -14.940  0.0000E+00  0.0000E+00
    -14.920  0.0000E+00  0.0000E+00
    -14.900  0.0000E+00  0.0000E+00
    -14.880  0.0000E+00  0.0000E+00
    -14.860  0.0000E+00  0.0000E+00
    -14.840  0.0000E+00  0.0000E+00
    -14.820  0.0000E+00  0.0000E+00
    -14.800  0.0000E+00  0.0000E+00
    -14.780  0.0000E+00  0.0000E+00
    -14.760  0.0000E+00  0.0000E+00
    -14.740  0.0000E+00  0.0000E+00
    -14.720  0.0000E+00  0.0000E+00
    -14.700  0.0000E+00  0.0000E+00
    -14.680  0.0000E+00  0.0000E+00
    -14.660  0.0000E+00  0.0000E+00
    -14.640  0.0000E+00  0.0000E+00
    -14.620  0.0000E+00  0.0000E+00
    -14.600  0.0000E+00  0.0000E+00
    -14.580  0.0000E+00  0.0000E+00
    -14.560  0.0000E+00  0.0000E+00
    -14.540  0.0000E+00  0.0000E+00
    -14.520  0.0000E+00  0.0000E+00
    -14.500  0.0000E+00  0.0000E+00
    -14.480  0.0000E+00  0.0000E+00
    -14.460  0.0000E+00  0.0000E+00
    -14.440  0.0000E+00  0.0000E+00
    -14.420  0.0000E+00  0.0000E+00
    -14.400  0.0000E+00  0.0000E+00
    -14.380  0.0000E+00  0.0000E+00
    -14.360  0.0000E+00  0.0000E+00
    -14.340  0.0000E+00  0.0000E+00
    -14.320  0.0000E+00  0.0000E+00
    -14.300  0.0000E+00  0.0000E+00
    -14.280  0.0000E+00  0.0000E+00
    -14.260  0.0000E+00  0.0000E+00
    -14.240  0.0000E+00  0.0000E+00
    -14.220  0.0000E+00  0.0000E+00
    -14.200  0.0000E+00  0.0000E+00
    -14.180  0.0000E+00  0.0000E+00
    -14.160  0.0000E+00  0.0000E+00
    -14.140  0.0000E+00  0.0000E+00
    -14.120  0.0000E+00  0.0000E+00
    -14.100  0.0000E+00  0.0000E+00
    -14.080  0.0000E+00  0.0000E+00
    -14.060  0.0000E+00  0.0000E+00
    -14.040  0.0000E+00  0.0000E+00
    -14.020  0.0000E+00  0.0000E+00
    -14.000  0.0000E+00  0.0000E+00
    -13.980  0.0000E+00  0.0000E+00
    -13.960  0.0000E+00  0.0000E+00
    -13.940  0.0000E+00  0.0000E+00
    -13.920  0.0000E+00  0.0000E+00
    -13.900  0.0000E+00  0.0000E+00
    -13.880  0.0000E+00  0.0000E+00
    -13.860  0.0000E+00  0.0000E+00
    -13.840  0.0000E+00  0.0000E+00
    -13.820  0.0000E+00  0.0000E+00
    -13.800  0.0000E+00  0.0000E+00
    -13.780  0.0000E+00  0.0000E+00
    -13.760  0.0000E+00  0.0000E+00
    -13.740  0.0000E+00  0.0000E+00
    -13.720  0.0000E+00  0.0000E+00
    -13.700  0.0000E+00  0.0000E+00
    -13.680  0.0000E+00  0.0000E+00
    -13.660  0.0000E+00  0.0000E+00
    -13.640  0.0000E+00  0.0000E+00
    -13.620  0.0000E+00  0.0000E+00
    -13.600  0.0000E+00  0.0000E+00
    -13.580  0.0000E+00  0.0000E+00
    -13.560  0.0000E+00  0.0000E+00
    -13.540  0.0000E+00  0.0000E+00
    -13.520  0.0000E+00  0.0000E+00
    -13.500  0.0000E+00  0.0000E+00
    -13.480  0.0000E+00  0.0000E+00
    -13.460  0.0000E+00  0.0000E+00
    -13.440  0.0000E+00  0.0000E+00
    -13.420  0.0000E+00  0.0000E+00
    -13.400  0.0000E+00  0.0000E+00
    -13.380  0.0000E+00  0.0000E+00
    -13.360  0.0000E+00  0.0000E+00
    -13.340  0.0000E+00  0.0000E+00
    -13.320  0.0000E+00  0.0000E+00
    -13.300  0.0000E+00  0.0000E+00
    -13.280  0.0000E+00  0.0000E+00
    -13.260  0.0000E+00  0.0000E+00
    -13.240  0.0000E+00  0.0000E+00
    -13.220  0.0000E+00  0.0000E+00
    -13.200  0.0000E+00  0.0000E+00
    -13.180  0.0000E+00  0.0000E+00
    -13.160  0.0000E+00  0.0000E+00
    -13.140  0.0000E+00  0.0000E+00
    -13.120  0.0000E+00  0.0000E+00
    -13.100  0.0000E+00  0.0000E+00
    -13.080  0.0000E+00  0.0000E+00
    -13.060  0.0000E+00  0.0000E+00
    -13.040  0.0000E+00  0.0000E+00
    -13.020  0.0000E+00  0.0000E+00
    -13.000  0.0000E+00  0.0000E+00
    -12.980  0.0000E+00  0.0000E+00
    -12.960  0.0000E+00  0.0000E+00
    -12.940  0.0000E+00  0.0000E+00
    -12.920  0.0000E+00  0.0000E+00
    -12.900  0.0000E+00  0.0000E+00
    -12.880  0.0000E+00  0.0000E+00
    -12.860  0.0000E+00  0.0000E+00
    -12.840  0.0000E+00  0.0000E+00
    -12.820  0.0000E+00  0.0000E+00
    -12.800  0.0000E+00  0.0000E+00
    -12.780  0.0000E+00  0.0000E+00
    -12.760  0.0000E+00  0.0000E+00
    -12.740  0.0000E+00  0.0000E+00
    -12.720  0.0000E+00  0.0000E+00
    -12.700  0.0000E+00  0.0000E+00
    -12.680  0.0000E+00  0.0000E+00
    -12.660  0.0000E+00  0.0000E+00
    -12.640  0.0000E+00  0.0000E+00
    -12.620  0.0000E+00  0.0000E+00
    -12.600  0.0000E+00  0.0000E+00
    -12.580  0.0000E+00  0.0000E+00
    -12.560  0.0000E+00  0.0000E+00
    -12.540  0.0000E+00  0.0000E+00
    -12.520  0.0000E+00  0.0000E+00
    -12.500  0.0000E+00  0.0000E+00
    -12.480  0.0000E+00  0.0000E+00
    -12.460  0.0000E+00  0.0000E+00
    -12.440  0.0000E+00  0.0000E+00
    -12.420  0.0000E+00  0.0000E+00
    -12.400  0.0000E+00  0.0000E+00
    -12.380  0.0000E+00  0.0000E+00
    -12.360  0.0000E+00  0.0000E+00
    -12.340  0.0000E+00  0.0000E+00
    -12.320  0.0000E+00  0.0000E+00
    -12.300  0.0000E+00  0.0000E+00
    -12.280  0.0000E+00  0.0000E+00
    -12.260  0.0000E+00  0.0000E+00
    -12.240  0.0000E+00  0.0000E+00
    -12.220  0.0000E+00  0.0000E+00
    -12.200  0.0000E+00  0.0000E+00
    -12.180  0.0000E+00  0.0000E+00
    -12.160  0.0000E+00  0.0000E+00
    -12.140  0.0000E+00  0.0000E+00
    -12.120  0.0000E+00  0.0000E+00
    -12.100  0.0000E+00  0.0000E+00
    -12.080  0.0000E+00  0.0000E+00
    -12.060  0.0000E+00  0.0000E+00
    -12.040  0.0000E+00  0.0000E+00
    -12.020  0.0000E+00  0.0000E+00
    -12.000  0.0000E+00  0.0000E+00
    -11.980  0.0000E+00  0.0000E+00
    -11.960  0.0000E+00  0.0000E+00
    -11.940  0.0000E+00  0.0000E+00
    -11.920  0.0000E+00  0.0000E+00
    -11.900  0.0000E+00  0.0000E+00
    -11.880  0.0000E+00  0.0000E+00
    -11.860  0.0000E+00  0.0000E+00
    -11.840  0.0000E+00  0.0000E+00
    -11.820  0.0000E+00  0.0000E+00
    -11.800  0.0000E+00  0.0000E+00
    -11.780  0.0000E+00  0.0000E+00
    -11.760  0.0000E+00  0.0000E+00
    -11.740  0.0000E+00  0.0000E+00
    -11.720  0.0000E+00  0.0000E+00
    -11.700  0.0000E+00  0.0000E+00
    -11.680  0.0000E+00  0.0000E+00
    -11.660  0.0000E+00  0.0000E+00
    -11.640  0.0000E+00  0.0000E+00
    -11.620  0.0000E+00  0.0000E+00
    -11.600  0.0000E+00  0.0000E+00
    -11.580  0.0000E+00  0.0000E+00
    -11.560  0.0000E+00  0.0000E+00
    -11.540  0.0000E+00  0.0000E+00
    -11.520  0.0000E+00  0.0000E+00
    -11.500  0.0000E+00  0.0000E+00
    -11.480  0.0000E+00  0.0000E+00
    -11.460  0.0000E+00  0.0000E+00
    -11.440  0.0000E+00  0.0000E+00
    -11.420  0.0000E+00  0.0000E+00
    -11.400  0.0000E+00  0.0000E+00
    -11.380  0.0000E+00  0.0000E+00
    -11.360  0.0000E+00  0.0000E+00
    -11.340  0.0000E+00  0.0000E+00
    -11.320  0.0000E+00  0.0000E+00
    -11.300  0.0000E+00  0.0000E+00
    -11.280  0.0000E+00  0.0000E+00
    -11.260  0.0000E+00  0.0000E+00
    -11.240  0.0000E+00  0.0000E+00
    -11.220  0.0000E+00  0.0000E+00
    -11.200  0.0000E+00  0.0000E+00
    -11.180  0.0000E+00  0.0000E+00
    -11.160  0.0000E+00  0.0000E+00
    -11.140  0.0000E+00  0.0000E+00
    -11.120  0.0000E+00  0.0000E+00
    -11.100  0.0000E+00  0.0000E+00
    -11.080  0.0000E+00  0.0000E+00
    -11.060  0.0000E+00  0.0000E+00
    -11.040  0.0000E+00  0.0000E+00
    -11.020  0.0000E+00  0.0000E+00
    -11.000  0.0000E+00  0.0000E+00
    -10.980  0.0000E+00  0.0000E+00
    -10.960  0.0000E+00  0.0000E+00
    -10.940  0.0000E+00  0.0000E+00
    -10.920  0.0000E+00  0.0000E+00
    -10.900  0.0000E+00  0.0000E+00
    -10.880  0.0000E+00  0.0000E+00
    -10.860  0.0000E+00  0.0000E+00
    -10.840  0.0000E+00  0.0000E+00
    -10.820  0.0000E+00  0.0000E+00
    -10.800  0.0000E+00  0.0000E+00
    -10.780  0.0000E+00  0.0000E+00
    -10.760  0.0000E+00  0.0000E+00
    -10.740  0.0000E+00  0.0000E+00
    -10.720  0.0000E+00  0.0000E+00
    -10.700  0.0000E+00  0.0000E+00
    -10.680  0.0000E+00  0.0000E+00
    -10.660  0.0000E+00  0.0000E+00
    -10.640  0.0000E+00  0.0000E+00
    -10.620  0.0000E+00  0.0000E+00
    -10.600  0.0000E+00  0.0000E+00
    -10.580  0.0000E+00  0.0000E+00
    -10.560  0.0000E+00  0.0000E+00
    -10.540  0.0000E+00  0.0000E+00
    -10.520  0.0000E+00  0.0000E+00
    -10.500  0.0000E+00  0.0000E+00
    -10.480  0.0000E+00  0.0000E+00
    -10.460  0.0000E+00  0.0000E+00
    -10.440  0.0000E+00  0.0000E+00
    -10.420  0.0000E+00  0.0000E+00
    -10.400  0.0000E+00  0.0000E+00
    -10.380  0.0000E+00  0.0000E+00
    -10.360  0.0000E+00  0.0000E+00
    -10.340  0.0000E+00  0.0000E+00
    -10.320  0.0000E+00  0.0000E+00
    -10.300  0.0000E+00  0.0000E+00
    -10.280  0.0000E+00  0.0000E+00
    -10.260  0.0000E+00  0.0000E+00
    -10.240  0.0000E+00  0.0000E+00
    -10.220  0.0000E+00  0.0000E+00
    -10.200  0.0000E+00  0.0000E+00
    -10.180  0.0000E+00  0.0000E+00
    -10.160  0.0000E+00  0.0000E+00
    -10.140  0.0000E+00  0.0000E+00
    -10.120  0.0000E+00  0.0000E+00
    -10.100  0.0000E+00  0.0000E+00
    -10.080  0.0000E+00  0.0000E+00
    -10.060  0.0000E+00  0.0000E+00
    -10.040  0.0000E+00  0.0000E+00
    -10.020  0.0000E+00  0.0000E+00
    -10.000  0.0000E+00  0.0000E+00
     -9.980  0.0000E+00  0.0000E+00
     -9.960  0.0000E+00  0.0000E+00
     -9.940  0.0000E+00  0.0000E+00
     -9.920  0.0000E+00  0.0000E+00
     -9.900  0.0000E+00  0.0000E+00
     -9.880  0.0000E+00  0.0000E+00
     -9.860  0.0000E+00  0.0000E+00
     -9.840  0.0000E+00  0.0000E+00
     -9.820  0.0000E+00  0.0000E+00
     -9.800  0.0000E+00  0.0000E+00
     -9.780  0.0000E+00  0.0000E+00
     -9.760  0.0000E+00  0.0000E+00
     -9.740  0.0000E+00  0.0000E+00
     -9.720  0.0000E+00  0.0000E+00
     -9.700  0.0000E+00  0.0000E+00
     -9.680  0.0000E+00  0.0000E+00
     -9.660  0.0000E+00  0.0000E+00
     -9.640  0.0000E+00  0.0000E+00
     -9.620  0.0000E+00  0.0000E+00
     -9.600  0.0000E+00  0.0000E+00
     -9.580  0.0000E+00  0.0000E+00
     -9.560  0.0000E+00  0.0000E+00
     -9.540  0.0000E+00  0.0000E+00
     -9.520  0.0000E+00  0.0000E+00
     -9.500  0.0000E+00  0.0000E+00
     -9.480  0.0000E+00  0.0000E+00
     -9.460  0.0000E+00  0.0000E+00
     -9.440  0.0000E+00  0.0000E+00
     -9.420  0.0000E+00  0.0000E+00
     -9.400  0.0000E+00  0.0000E+00
     -9.380  0.0000E+00  0.0000E+00
     -9.360  0.0000E+00  0.0000E+00
     -9.340  0.0000E+00  0.0000E+00
     -9.320  0.0000E+00  0.0000E+00
     -9.300  0.0000E+00  0.0000E+00
     -9.280  0.0000E+00  0.0000E+00
     -9.260  0.0000E+00  0.0000E+00
     -9.240  0.0000E+00  0.0000E+00
     -9.220  0.0000E+00  0.0000E+00
     -9.200  0.0000E+00  0.0000E+00
     -9.180  0.0000E+00  0.0000E+00
     -9.160  0.0000E+00  0.0000E+00
     -9.140  0.0000E+00  0.0000E+00
     -9.120  0.0000E+00  0.0000E+00
     -9.100  0.0000E+00  0.0000E+00
     -9.080  0.0000E+00  0.0000E+00
     -9.060  0.0000E+00  0.0000E+00
     -9.040  0.0000E+00  0.0000E+00
     -9.020  0.0000E+00  0.0000E+00
     -9.000  0.0000E+00  0.0000E+00
     -8.980  0.0000E+00  0.0000E+00
     -8.960  0.0000E+00  0.0000E+00
     -8.940  0.0000E+00  0.0000E+00
     -8.920  0.0000E+00  0.0000E+00
     -8.900  0.0000E+00  0.0000E+00
     -8.880  0.0000E+00  0.0000E+00
     -8.860  0.0000E+00  0.0000E+00
     -8.840  0.0000E+00  0.0000E+00
     -8.820  0.0000E+00  0.0000E+00
     -8.800  0.0000E+00  0.0000E+00
     -8.780  0.0000E+00  0.0000E+00
     -8.760  0.0000E+00  0.0000E+00
     -8.740  0.0000E+00  0.0000E+00
     -8.720  0.0000E+00  0.0000E+00
     -8.700  0.0000E+00  0.0000E+00
     -8.680  0.0000E+00  0.0000E+00
     -8.660  0.0000E+00  0.0000E+00
     -8.640  0.0000E+00  0.0000E+00
     -8.620  0.0000E+00  0.0000E+00
     -8.600  0.0000E+00  0.0000E+00
     -8.580  0.0000E+00  0.0000E+00
     -8.560  0.0000E+00  0.0000E+00
     -8.540  0.0000E+00  0.0000E+00
     -8.520  0.0000E+00  0.0000E+00
     -8.500  0.0000E+00  0.0000E+00
     -8.480  0.0000E+00  0.0000E+00
     -8.460  0.0000E+00  0.0000E+00
     -8.440  0.0000E+00  0.0000E+00
     -8.420  0.0000E+00  0.0000E+00
     -8.400  0.0000E+00  0.0000E+00
     -8.380  0.0000E+00  0.0000E+00
     -8.360  0.0000E+00  0.0000E+00
     -8.340  0.0000E+00  0.0000E+00
     -8.320  0.0000E+00  0.0000E+00
     -8.300  0.0000E+00  0.0000E+00
     -8.280  0.0000E+00  0.0000E+00
     -8.260  0.0000E+00  0.0000E+00
     -8.240  0.0000E+00  0.0000E+00
     -8.220  0.0000E+00  0.0000E+00
     -8.200  0.0000E+00  0.0000E+00
     -8.180  0.0000E+00  0.0000E+00
     -8.160  0.0000E+00  0.0000E+00
     -8.140  0.0000E+00  0.0000E+00
     -8.120  0.0000E+00  0.0000E+00
     -8.100  0.0000E+00  0.0000E+00
     -8.080  0.0000E+00  0.0000E+00
     -8.060  0.0000E+00  0.0000E+00
     -8.040  0.0000E+00  0.0000E+00
     -8.020  0.0000E+00  0.0000E+00
     -8.000  0.0000E+00  0.0000E+00
     -7.980  0.0000E+00  0.0000E+00
     -7.960  0.0000E+00  0.0000E+00
     -7.940  0.0000E+00  0.0000E+00
     -7.920  0.0000E+00  0.0000E+00
     -7.900  0.0000E+00  0.0000E+00
     -7.880  0.0000E+00  0.0000E+00
     -7.860  0.0000E+00  0.0000E+00
     -7.840  0.0000E+00  0.0000E+00
     -7.820  0.0000E+00  0.0000E+00
     -7.800  0.1551E-02  0.7307E-05
     -7.780  0.9048E-02  0.1029E-03
     -7.760  0.2276E-01  0.4107E-03
     -7.740  0.4268E-01  0.1055E-02
     -7.720  0.6882E-01  0.2159E-02
     -7.700  0.1012E+00  0.3849E-02
     -7.680  0.1007E+00  0.5972E-02
     -7.660  0.9608E-01  0.7916E-02
     -7.640  0.1025E+00  0.9896E-02
     -7.620  0.1099E+00  0.1202E-01
     -7.600  0.1174E+00  0.1429E-01
     -7.580  0.1252E+00  0.1672E-01
     -7.560  0.1333E+00  0.1930E-01
     -7.540  0.1415E+00  0.2205E-01
     -7.520  0.1499E+00  0.2496E-01
     -7.500  0.1586E+00  0.2805E-01
     -7.480  0.1670E+00  0.3131E-01
     -7.460  0.1741E+00  0.3472E-01
     -7.440  0.1796E+00  0.3826E-01
     -7.420  0.1837E+00  0.4190E-01
     -7.400  0.1863E+00  0.4560E-01
     -7.380  0.1874E+00  0.4934E-01
     -7.360  0.1894E+00  0.5310E-01
     -7.340  0.1932E+00  0.5692E-01
     -7.320  0.1980E+00  0.6084E-01
     -7.300  0.2028E+00  0.6484E-01
     -7.280  0.2077E+00  0.6895E-01
     -7.260  0.2126E+00  0.7315E-01
     -7.240  0.2176E+00  0.7745E-01
     -7.220  0.2226E+00  0.8185E-01
     -7.200  0.2276E+00  0.8636E-01
     -7.180  0.2327E+00  0.9096E-01
     -7.160  0.2378E+00  0.9566E-01
     -7.140  0.2430E+00  0.1005E+00
     -7.120  0.2482E+00  0.1054E+00
     -7.100  0.2535E+00  0.1104E+00
     -7.080  0.2589E+00  0.1155E+00
     -7.060  0.2634E+00  0.1208E+00
     -7.040  0.2646E+00  0.1260E+00
     -7.020  0.2672E+00  0.1313E+00
     -7.000  0.2706E+00  0.1367E+00
     -6.980  0.2739E+00  0.1422E+00
     -6.960  0.2772E+00  0.1477E+00
     -6.940  0.2805E+00  0.1533E+00
     -6.920  0.2838E+00  0.1589E+00
     -6.900  0.2870E+00  0.1646E+00
     -6.880  0.2903E+00  0.1704E+00
     -6.860  0.2935E+00  0.1762E+00
     -6.840  0.2968E+00  0.1821E+00
     -6.820  0.3002E+00  0.1881E+00
     -6.800  0.3037E+00  0.1941E+00
     -6.780  0.3074E+00  0.2002E+00
     -6.760  0.3111E+00  0.2064E+00
     -6.740  0.3150E+00  0.2127E+00
     -6.720  0.3191E+00  0.2190E+00
     -6.700  0.3231E+00  0.2255E+00
     -6.680  0.3272E+00  0.2320E+00
     -6.660  0.3314E+00  0.2385E+00
     -6.640  0.3355E+00  0.2452E+00
     -6.620  0.3397E+00  0.2520E+00
     -6.600  0.3439E+00  0.2588E+00
     -6.580  0.3481E+00  0.2657E+00
     -6.560  0.3523E+00  0.2727E+00
     -6.540  0.3563E+00  0.2798E+00
     -6.520  0.3598E+00  0.2870E+00
     -6.500  0.3630E+00  0.2942E+00
     -6.480  0.3658E+00  0.3015E+00
     -6.460  0.3683E+00  0.3088E+00
     -6.440  0.3706E+00  0.3162E+00
     -6.420  0.3737E+00  0.3237E+00
     -6.400  0.3771E+00  0.3312E+00
     -6.380  0.3805E+00  0.3387E+00
     -6.360  0.3839E+00  0.3464E+00
     -6.340  0.3874E+00  0.3541E+00
     -6.320  0.3909E+00  0.3619E+00
     -6.300  0.3944E+00  0.3697E+00
     -6.280  0.3979E+00  0.3777E+00
     -6.260  0.4015E+00  0.3857E+00
     -6.240  0.4051E+00  0.3937E+00
     -6.220  0.4087E+00  0.4019E+00
     -6.200  0.4124E+00  0.4101E+00
     -6.180  0.4161E+00  0.4183E+00
     -6.160  0.4198E+00  0.4267E+00
     -6.140  0.4237E+00  0.4351E+00
     -6.120  0.4276E+00  0.4437E+00
     -6.100  0.4317E+00  0.4522E+00
     -6.080  0.4359E+00  0.4609E+00
     -6.060  0.4401E+00  0.4697E+00
     -6.040  0.4443E+00  0.4785E+00
     -6.020  0.4486E+00  0.4875E+00
     -6.000  0.4530E+00  0.4965E+00
     -5.980  0.4574E+00  0.5056E+00
     -5.960  0.4618E+00  0.5148E+00
     -5.940  0.4663E+00  0.5241E+00
     -5.920  0.4708E+00  0.5334E+00
     -5.900  0.4754E+00  0.5429E+00
     -5.880  0.4799E+00  0.5524E+00
     -5.860  0.4840E+00  0.5621E+00
     -5.840  0.4881E+00  0.5718E+00
     -5.820  0.4925E+00  0.5816E+00
     -5.800  0.4969E+00  0.5915E+00
     -5.780  0.5015E+00  0.6015E+00
     -5.760  0.5061E+00  0.6116E+00
     -5.740  0.5108E+00  0.6217E+00
     -5.720  0.5156E+00  0.6320E+00
     -5.700  0.5206E+00  0.6424E+00
     -5.680  0.5259E+00  0.6528E+00
     -5.660  0.5316E+00  0.6634E+00
     -5.640  0.5377E+00  0.6741E+00
     -5.620  0.5440E+00  0.6849E+00
     -5.600  0.5506E+00  0.6958E+00
     -5.580  0.5575E+00  0.7069E+00
     -5.560  0.5647E+00  0.7182E+00
     -5.540  0.5721E+00  0.7295E+00
     -5.520  0.5798E+00  0.7410E+00
     -5.500  0.5877E+00  0.7527E+00
     -5.480  0.5958E+00  0.7645E+00
     -5.460  0.6042E+00  0.7765E+00
     -5.440  0.6128E+00  0.7887E+00
     -5.420  0.6217E+00  0.8011E+00
     -5.400  0.6321E+00  0.8136E+00
     -5.380  0.6445E+00  0.8264E+00
     -5.360  0.6589E+00  0.8394E+00
     -5.340  0.6752E+00  0.8527E+00
     -5.320  0.7051E+00  0.8665E+00
     -5.300  0.7303E+00  0.8809E+00
     -5.280  0.7507E+00  0.8957E+00
     -5.260  0.7661E+00  0.9109E+00
     -5.240  0.7767E+00  0.9263E+00
     -5.220  0.7825E+00  0.9419E+00
     -5.200  0.7834E+00  0.9576E+00
     -5.180  0.7794E+00  0.9732E+00
     -5.160  0.7706E+00  0.9887E+00
     -5.140  0.7572E+00  0.1004E+01
     -5.120  0.7449E+00  0.1019E+01
     -5.100  0.7945E+00  0.1034E+01
     -5.080  0.8255E+00  0.1051E+01
     -5.060  0.8379E+00  0.1067E+01
     -5.040  0.8299E+00  0.1084E+01
     -5.020  0.8018E+00  0.1100E+01
     -5.000  0.7856E+00  0.1116E+01
     -4.980  0.7708E+00  0.1132E+01
     -4.960  0.7576E+00  0.1147E+01
     -4.940  0.7458E+00  0.1162E+01
     -4.920  0.7355E+00  0.1177E+01
     -4.900  0.7268E+00  0.1192E+01
     -4.880  0.7195E+00  0.1206E+01
     -4.860  0.7137E+00  0.1220E+01
     -4.840  0.7094E+00  0.1235E+01
     -4.820  0.7066E+00  0.1249E+01
     -4.800  0.7052E+00  0.1263E+01
     -4.780  0.7008E+00  0.1277E+01
     -4.760  0.6958E+00  0.1291E+01
     -4.740  0.6907E+00  0.1305E+01
     -4.720  0.6855E+00  0.1319E+01
     -4.700  0.6803E+00  0.1332E+01
     -4.680  0.6750E+00  0.1346E+01
     -4.660  0.6697E+00  0.1359E+01
     -4.640  0.6644E+00  0.1373E+01
     -4.620  0.6590E+00  0.1386E+01
     -4.600  0.6536E+00  0.1399E+01
     -4.580  0.6481E+00  0.1412E+01
     -4.560  0.6426E+00  0.1425E+01
     -4.540  0.6370E+00  0.1438E+01
     -4.520  0.6314E+00  0.1450E+01
     -4.500  0.6258E+00  0.1463E+01
     -4.480  0.6220E+00  0.1475E+01
     -4.460  0.6161E+00  0.1488E+01
     -4.440  0.6068E+00  0.1500E+01
     -4.420  0.5982E+00  0.1512E+01
     -4.400  0.5925E+00  0.1524E+01
     -4.380  0.5893E+00  0.1536E+01
     -4.360  0.5871E+00  0.1547E+01
     -4.340  0.5843E+00  0.1559E+01
     -4.320  0.5809E+00  0.1571E+01
     -4.300  0.5771E+00  0.1582E+01
     -4.280  0.5730E+00  0.1594E+01
     -4.260  0.5687E+00  0.1605E+01
     -4.240  0.5642E+00  0.1617E+01
     -4.220  0.5594E+00  0.1628E+01
     -4.200  0.5544E+00  0.1639E+01
     -4.180  0.5491E+00  0.1650E+01
     -4.160  0.5436E+00  0.1661E+01
     -4.140  0.5378E+00  0.1672E+01
     -4.120  0.5318E+00  0.1683E+01
     -4.100  0.5250E+00  0.1693E+01
     -4.080  0.5182E+00  0.1704E+01
     -4.060  0.5117E+00  0.1714E+01
     -4.040  0.5055E+00  0.1724E+01
     -4.020  0.4996E+00  0.1734E+01
     -4.000  0.4940E+00  0.1744E+01
     -3.980  0.4886E+00  0.1754E+01
     -3.960  0.4836E+00  0.1764E+01
     -3.940  0.4792E+00  0.1773E+01
     -3.920  0.4754E+00  0.1783E+01
     -3.900  0.4718E+00  0.1792E+01
     -3.880  0.4677E+00  0.1802E+01
     -3.860  0.4602E+00  0.1811E+01
     -3.840  0.4585E+00  0.1820E+01
     -3.820  0.4676E+00  0.1829E+01
     -3.800  0.4704E+00  0.1839E+01
     -3.780  0.4670E+00  0.1848E+01
     -3.760  0.4580E+00  0.1857E+01
     -3.740  0.4476E+00  0.1866E+01
     -3.720  0.4369E+00  0.1875E+01
     -3.700  0.4258E+00  0.1884E+01
     -3.680  0.4144E+00  0.1892E+01
     -3.660  0.4026E+00  0.1900E+01
     -3.640  0.4021E+00  0.1908E+01
     -3.620  0.4047E+00  0.1916E+01
     -3.600  0.4039E+00  0.1925E+01
     -3.580  0.3997E+00  0.1933E+01
     -3.560  0.3922E+00  0.1941E+01
     -3.540  0.3812E+00  0.1948E+01
     -3.520  0.3668E+00  0.1956E+01
     -3.500  0.3490E+00  0.1963E+01