 vasp.5.4.1 05Feb16 (build Oct 05 2016 13:11:45) complex                        
  
 executed on      GRP7IFC17NORMAL date 2018.05.01  21:05:30
 running on   48 total cores
 distrk:  each k-point on   12 cores,    4 groups
 distr:  one band on NCORES_PER_BAND=   3 cores,    4 groups


--------------------------------------------------------------------------------------------------------


 INCAR:
 POTCAR:    PAW_PBE Si 05Jan2001                  

 ----------------------------------------------------------------------------- 
|                                                                             |
|           W    W    AA    RRRRR   N    N  II  N    N   GGGG   !!!           |
|           W    W   A  A   R    R  NN   N  II  NN   N  G    G  !!!           |
|           W    W  A    A  R    R  N N  N  II  N N  N  G       !!!           |
|           W WW W  AAAAAA  RRRRR   N  N N  II  N  N N  G  GGG   !            |
|           WW  WW  A    A  R   R   N   NN  II  N   NN  G    G                |
|           W    W  A    A  R    R  N    N  II  N    N   GGGG   !!!           |
|                                                                             |
|      For optimal performance we recommend to set                            |
|        NCORE= 4 - approx SQRT( number of cores)                             |
|      NCORE specifies how many cores store one orbital (NPAR=cpu/NCORE).     |
|      This setting can  greatly improve the performance of VASP for DFT.     |
|      The default, NPAR=number of cores might be grossly inefficient         |
|      on modern multi-core architectures or massively parallel machines.     |
|      Do your own testing !!!!                                               |
|      Unfortunately you need to use the default for GW and RPA calculations. |
|      (for HF NCORE is supported but not extensively tested yet)             |
|                                                                             |
 ----------------------------------------------------------------------------- 


 ----------------------------------------------------------------------------- 
|                                                                             |
|           W    W    AA    RRRRR   N    N  II  N    N   GGGG   !!!           |
|           W    W   A  A   R    R  NN   N  II  NN   N  G    G  !!!           |
|           W    W  A    A  R    R  N N  N  II  N N  N  G       !!!           |
|           W WW W  AAAAAA  RRRRR   N  N N  II  N  N N  G  GGG   !            |
|           WW  WW  A    A  R   R   N   NN  II  N   NN  G    G                |
|           W    W  A    A  R    R  N    N  II  N    N   GGGG   !!!           |
|                                                                             |
|      You have enabled k-point parallelism (KPAR>1).                         |
|      This developmental code was originally  written by Paul Kent at ORNL,  |
|      and carefully double checked in Vienna.                                |
|      GW as well as linear response parallelism added by Martijn Marsman     |
|      and Georg Kresse.                                                      |
|      Carefully verify results versus KPAR=1.                                |
|      Report problems to Paul Kent and Vienna.                               |
|                                                                             |
 ----------------------------------------------------------------------------- 

 POTCAR:    PAW_PBE Si 05Jan2001                  
   VRHFIN =Si: s2p2                                                             
   LEXCH  = PE                                                                  
   EATOM  =   103.0669 eV,    7.5752 Ry                                         
                                                                                
   TITEL  = PAW_PBE Si 05Jan2001                                                
   LULTRA =        F    use ultrasoft PP ?                                      
   IUNSCR =        1    unscreen: 0-lin 1-nonlin 2-no                           
   RPACOR =    1.500    partial core radius                                     
   POMASS =   28.085; ZVAL   =    4.000    mass and valenz                      
   RCORE  =    1.900    outmost cutoff radius                                   
   RWIGS  =    2.480; RWIGS  =    1.312    wigner-seitz radius (au A)           
   ENMAX  =  245.345; ENMIN  =  184.009 eV                                      
   ICORE  =        2    local potential                                         
   LCOR   =        T    correct aug charges                                     
   LPAW   =        T    paw PP                                                  
   EAUG   =  322.069                                                            
   DEXC   =    0.000                                                            
   RMAX   =    1.950    core radius for proj-oper                               
   RAUG   =    1.300    factor for augmentation sphere                          
   RDEP   =    1.993    radius for radial grids                                 
   RDEPT  =    1.837    core radius for aug-charge                              
                                                                                
   Atomic configuration                                                         
    6 entries                                                                   
     n  l   j            E        occ.                                          
     1  0  0.50     -1785.8828   2.0000                                         
     2  0  0.50      -139.4969   2.0000                                         
     2  1  1.50       -95.5546   6.0000                                         
     3  0  0.50       -10.8127   2.0000                                         
     3  1  0.50        -4.0811   2.0000                                         
     3  2  1.50        -4.0817   0.0000                                         
   Description                                                                  
     l       E           TYP  RCUT    TYP  RCUT                                 
     0    -10.8127223     23  1.900                                             
     0     -7.6451159     23  1.900                                             
     1     -4.0811372     23  1.900                                             
     1      2.4879257     23  1.900                                             
     2     -4.0817478      7  1.900                                             
  local pseudopotential read in
  partial core-charges read in
  partial kinetic energy density read in
  atomic valenz-charges read in
  non local Contribution for L=           0  read in
    real space projection operators read in
  non local Contribution for L=           0  read in
    real space projection operators read in
  non local Contribution for L=           1  read in
    real space projection operators read in
  non local Contribution for L=           1  read in
    real space projection operators read in
    PAW grid and wavefunctions read in
 
   number of l-projection  operators is LMAX  =           4
   number of lm-projection operators is LMMAX =           8
 
  PAW_PBE Si 05Jan2001                  :
 energy of atom  1       EATOM= -103.0669
 kinetic energy error for atom=    0.0006 (will be added to EATOM!!)
 
 
 POSCAR: Si                                      
  positions in direct lattice
  velocities in cartesian coordinates
 exchange correlation table for  LEXCH =        8
   RHO(1)=    0.500       N(1)  =     2000
   RHO(2)=  100.500       N(2)  =     4000
 


--------------------------------------------------------------------------------------------------------


 ion  position               nearest neighbor table
   1  0.000  0.000  0.000-   2 2.35   2 2.35   2 2.35   2 2.35
   2  0.250  0.250  0.250-   1 2.35   1 2.35   1 2.35   1 2.35
 
  LATTYP: Found a face centered cubic cell.
 ALAT       =     5.4261744912
  
  Lattice vectors:
  
 A1 = (   2.7130872456,   2.7130872456,   0.0000000000)
 A2 = (   0.0000000000,   2.7130872456,   2.7130872456)
 A3 = (   2.7130872456,   0.0000000000,   2.7130872456)


Analysis of symmetry for initial positions (statically):
=====================================================================
 Subroutine PRICEL returns:
 Original cell was already a primitive cell.
 

 Routine SETGRP: Setting up the symmetry group for a 
 face centered cubic supercell.


 Subroutine GETGRP returns: Found 48 space group operations
 (whereof 24 operations were pure point group operations)
 out of a pool of 48 trial point group operations.


The static configuration has the point symmetry T_d .
 The point group associated with its full space group is O_h .


Analysis of symmetry for dynamics (positions and initial velocities):
=====================================================================
 Subroutine PRICEL returns:
 Original cell was already a primitive cell.
 

 Routine SETGRP: Setting up the symmetry group for a 
 face centered cubic supercell.


 Subroutine GETGRP returns: Found 48 space group operations
 (whereof 24 operations were pure point group operations)
 out of a pool of 48 trial point group operations.


The dynamic configuration has the point symmetry T_d .
 The point group associated with its full space group is O_h .


 Subroutine INISYM returns: Found 48 space group operations
 (whereof 24 operations are pure point group operations),
 and found     1 'primitive' translations

 
 

Automatic generation of k-mesh.
 generate k-points for:   11   11   11
Space group operators:
 irot       det(A)        alpha          n_x          n_y          n_z        tau_x        tau_y        tau_z
    1     1.000000     0.000000     1.000000     0.000000     0.000000     0.000000     0.000000     0.000000
    2     1.000000   120.000000    -0.577350    -0.577350    -0.577350     0.000000     0.000000     0.000000
    3     1.000000   120.000000     0.577350     0.577350     0.577350     0.000000     0.000000     0.000000
    4    -1.000000    90.000000     0.000000    -1.000000     0.000000     0.000000     0.000000     0.000000
    5    -1.000000   180.000000     0.707107     0.707107     0.000000     0.000000     0.000000     0.000000
    6    -1.000000    90.000000     1.000000     0.000000     0.000000     0.000000     0.000000     0.000000
    7     1.000000   180.000000     0.000000     1.000000     0.000000     0.000000     0.000000     0.000000
    8     1.000000   120.000000     0.577350     0.577350    -0.577350     0.000000     0.000000     0.000000
    9     1.000000   120.000000     0.577350    -0.577350    -0.577350     0.000000     0.000000     0.000000
   10    -1.000000    90.000000     0.000000     1.000000     0.000000     0.000000     0.000000     0.000000
   11    -1.000000    90.000000     0.000000     0.000000    -1.000000     0.000000     0.000000     0.000000
   12    -1.000000   180.000000     0.000000     0.707107     0.707107     0.000000     0.000000     0.000000
   13     1.000000   120.000000    -0.577350     0.577350     0.577350     0.000000     0.000000     0.000000
   14     1.000000   120.000000    -0.577350     0.577350    -0.577350     0.000000     0.000000     0.000000
   15     1.000000   180.000000     0.000000     0.000000     1.000000     0.000000     0.000000     0.000000
   16    -1.000000    90.000000    -1.000000     0.000000     0.000000     0.000000     0.000000     0.000000
   17    -1.000000   180.000000     0.707107     0.000000     0.707107     0.000000     0.000000     0.000000
   18    -1.000000    90.000000     0.000000     0.000000     1.000000     0.000000     0.000000     0.000000
   19     1.000000   120.000000    -0.577350    -0.577350     0.577350     0.000000     0.000000     0.000000
   20     1.000000   180.000000     1.000000     0.000000     0.000000     0.000000     0.000000     0.000000
   21     1.000000   120.000000     0.577350    -0.577350     0.577350     0.000000     0.000000     0.000000
   22    -1.000000   180.000000     0.707107    -0.707107     0.000000     0.000000     0.000000     0.000000
   23    -1.000000   180.000000     0.707107     0.000000    -0.707107     0.000000     0.000000     0.000000
   24    -1.000000   180.000000     0.000000    -0.707107     0.707107     0.000000     0.000000     0.000000
   25    -1.000000     0.000000     1.000000     0.000000     0.000000     0.250000     0.250000     0.250000
   26    -1.000000   120.000000    -0.577350    -0.577350    -0.577350     0.250000     0.250000     0.250000
   27    -1.000000   120.000000     0.577350     0.577350     0.577350     0.250000     0.250000     0.250000
   28     1.000000    90.000000     0.000000    -1.000000     0.000000     0.250000     0.250000     0.250000
   29     1.000000   180.000000     0.707107     0.707107     0.000000     0.250000     0.250000     0.250000
   30     1.000000    90.000000     1.000000     0.000000     0.000000     0.250000     0.250000     0.250000
   31    -1.000000   180.000000     0.000000     1.000000     0.000000     0.250000     0.250000     0.250000
   32    -1.000000   120.000000     0.577350     0.577350    -0.577350     0.250000     0.250000     0.250000
   33    -1.000000   120.000000     0.577350    -0.577350    -0.577350     0.250000     0.250000     0.250000
   34     1.000000    90.000000     0.000000     1.000000     0.000000     0.250000     0.250000     0.250000
   35     1.000000    90.000000     0.000000     0.000000    -1.000000     0.250000     0.250000     0.250000
   36     1.000000   180.000000     0.000000     0.707107     0.707107     0.250000     0.250000     0.250000
   37    -1.000000   120.000000    -0.577350     0.577350     0.577350     0.250000     0.250000     0.250000
   38    -1.000000   120.000000    -0.577350     0.577350    -0.577350     0.250000     0.250000     0.250000
   39    -1.000000   180.000000     0.000000     0.000000     1.000000     0.250000     0.250000     0.250000
   40     1.000000    90.000000    -1.000000     0.000000     0.000000     0.250000     0.250000     0.250000
   41     1.000000   180.000000     0.707107     0.000000     0.707107     0.250000     0.250000     0.250000
   42     1.000000    90.000000     0.000000     0.000000     1.000000     0.250000     0.250000     0.250000
   43    -1.000000   120.000000    -0.577350    -0.577350     0.577350     0.250000     0.250000     0.250000
   44    -1.000000   180.000000     1.000000     0.000000     0.000000     0.250000     0.250000     0.250000
   45    -1.000000   120.000000     0.577350    -0.577350     0.577350     0.250000     0.250000     0.250000
   46     1.000000   180.000000     0.707107    -0.707107     0.000000     0.250000     0.250000     0.250000
   47     1.000000   180.000000     0.707107     0.000000    -0.707107     0.250000     0.250000     0.250000
   48     1.000000   180.000000     0.000000    -0.707107     0.707107     0.250000     0.250000     0.250000
 
 Subroutine IBZKPT returns following result:
 ===========================================
 
 Found     56 irreducible k-points:
 
 Following reciprocal coordinates:
            Coordinates               Weight
  0.000000  0.000000  0.000000      1.000000
  0.090909  0.000000  0.000000      8.000000
  0.181818  0.000000  0.000000      8.000000
  0.272727  0.000000  0.000000      8.000000
  0.363636  0.000000  0.000000      8.000000
  0.454545  0.000000  0.000000      8.000000
  0.090909  0.090909  0.000000      6.000000
  0.181818  0.090909  0.000000     24.000000
  0.272727  0.090909  0.000000     24.000000
  0.363636  0.090909  0.000000     24.000000
  0.454545  0.090909  0.000000     24.000000
 -0.454545  0.090909  0.000000     24.000000
 -0.363636  0.090909  0.000000     24.000000
 -0.272727  0.090909  0.000000     24.000000
 -0.181818  0.090909  0.000000     24.000000
 -0.090909  0.090909  0.000000     12.000000
  0.181818  0.181818  0.000000      6.000000
  0.272727  0.181818  0.000000     24.000000
  0.363636  0.181818  0.000000     24.000000
  0.454545  0.181818  0.000000     24.000000
 -0.454545  0.181818  0.000000     24.000000
 -0.363636  0.181818  0.000000     24.000000
 -0.272727  0.181818  0.000000     24.000000
 -0.181818  0.181818  0.000000     12.000000
  0.272727  0.272727  0.000000      6.000000
  0.363636  0.272727  0.000000     24.000000
  0.454545  0.272727  0.000000     24.000000
 -0.454545  0.272727  0.000000     24.000000
 -0.363636  0.272727  0.000000     24.000000
 -0.272727  0.272727  0.000000     12.000000
  0.363636  0.363636  0.000000      6.000000
  0.454545  0.363636  0.000000     24.000000
 -0.454545  0.363636  0.000000     24.000000
 -0.363636  0.363636  0.000000     12.000000
  0.454545  0.454545  0.000000      6.000000
 -0.454545  0.454545  0.000000     12.000000
  0.272727  0.181818  0.090909     24.000000
  0.363636  0.181818  0.090909     48.000000
  0.454545  0.181818  0.090909     48.000000
 -0.454545  0.181818  0.090909     48.000000
  0.363636  0.272727  0.090909     24.000000
  0.454545  0.272727  0.090909     48.000000
 -0.454545  0.272727  0.090909     48.000000
 -0.363636  0.272727  0.090909     48.000000
 -0.272727  0.272727  0.090909     48.000000
 -0.181818  0.272727  0.090909     24.000000
  0.454545  0.363636  0.090909     24.000000
 -0.454545  0.363636  0.090909     48.000000
 -0.363636  0.363636  0.090909     48.000000
 -0.272727  0.363636  0.090909     24.000000
 -0.454545  0.454545  0.090909     24.000000
 -0.363636  0.454545  0.090909     24.000000
 -0.454545  0.363636  0.181818     24.000000
 -0.363636  0.363636  0.181818     48.000000
 -0.363636  0.454545  0.181818     24.000000
 -0.272727  0.454545  0.181818     24.000000
 
 Following cartesian coordinates:
            Coordinates               Weight
  0.000000  0.000000  0.000000      1.000000
  0.016754  0.016754 -0.016754      8.000000
  0.033508  0.033508 -0.033508      8.000000
  0.050261  0.050261 -0.050261      8.000000
  0.067015  0.067015 -0.067015      8.000000
  0.083769  0.083769 -0.083769      8.000000
  0.000000  0.033508  0.000000      6.000000
  0.016754  0.050261 -0.016754     24.000000
  0.033508  0.067015 -0.033508     24.000000
  0.050261  0.083769 -0.050261     24.000000
  0.067015  0.100523 -0.067015     24.000000
 -0.100523 -0.067015  0.100523     24.000000
 -0.083769 -0.050261  0.083769     24.000000
 -0.067015 -0.033508  0.067015     24.000000
 -0.050261 -0.016754  0.050261     24.000000
 -0.033508  0.000000  0.033508     12.000000
  0.000000  0.067015  0.000000      6.000000
  0.016754  0.083769 -0.016754     24.000000
  0.033508  0.100523 -0.033508     24.000000
  0.050261  0.117277 -0.050261     24.000000
 -0.117277 -0.050261  0.117277     24.000000
 -0.100523 -0.033508  0.100523     24.000000
 -0.083769 -0.016754  0.083769     24.000000
 -0.067015  0.000000  0.067015     12.000000
  0.000000  0.100523  0.000000      6.000000
  0.016754  0.117277 -0.016754     24.000000
  0.033508  0.134030 -0.033508     24.000000
 -0.134030 -0.033508  0.134030     24.000000
 -0.117277 -0.016754  0.117277     24.000000
 -0.100523  0.000000  0.100523     12.000000
  0.000000  0.134030  0.000000      6.000000
  0.016754  0.150784 -0.016754     24.000000
 -0.150784 -0.016754  0.150784     24.000000
 -0.134030  0.000000  0.134030     12.000000
  0.000000  0.167538  0.000000      6.000000
 -0.167538 -0.000000  0.167538     12.000000
  0.033508  0.067015 -0.000000     24.000000
  0.050261  0.083769 -0.016754     48.000000
  0.067015  0.100523 -0.033508     48.000000
 -0.100523 -0.067015  0.134030     48.000000
  0.033508  0.100523  0.000000     24.000000
  0.050261  0.117277 -0.016754     48.000000
 -0.117277 -0.050261  0.150784     48.000000
 -0.100523 -0.033508  0.134030     48.000000
 -0.083769 -0.016754  0.117277     48.000000
 -0.067015  0.000000  0.100523     24.000000
  0.033508  0.134030 -0.000000     24.000000
 -0.134030 -0.033508  0.167538     48.000000
 -0.117277 -0.016754  0.150784     48.000000
 -0.100523 -0.000000  0.134030     24.000000
 -0.150784 -0.016754  0.184292     24.000000
 -0.134030  0.000000  0.167538     24.000000
 -0.117277 -0.050261  0.184292     24.000000
 -0.100523 -0.033508  0.167538     48.000000
 -0.117277 -0.016754  0.184292     24.000000
 -0.100523 -0.000000  0.167538     24.000000
 
 TETIRR: Found    201 inequivalent tetrahedra from     7986
 
 Subroutine IBZKPT_HF returns following result:
 ==============================================
 
 Found   1331 k-points in 1st BZ
 the following   1331 k-points will be used (e.g. in the exchange kernel)
 Following reciprocal coordinates:   # in IRBZ
  0.000000  0.000000  0.000000    0.00075131   1 t-inv F
  0.090909  0.000000  0.000000    0.00075131   2 t-inv F
  0.181818  0.000000  0.000000    0.00075131   3 t-inv F
  0.272727  0.000000  0.000000    0.00075131   4 t-inv F
  0.363636  0.000000  0.000000    0.00075131   5 t-inv F
  0.454545  0.000000  0.000000    0.00075131   6 t-inv F
  0.090909  0.090909  0.000000    0.00075131   7 t-inv F
  0.181818  0.090909  0.000000    0.00075131   8 t-inv F
  0.272727  0.090909  0.000000    0.00075131   9 t-inv F
  0.363636  0.090909  0.000000    0.00075131  10 t-inv F
  0.454545  0.090909  0.000000    0.00075131  11 t-inv F
 -0.454545  0.090909  0.000000    0.00075131  12 t-inv F
 -0.363636  0.090909  0.000000    0.00075131  13 t-inv F
 -0.272727  0.090909  0.000000    0.00075131  14 t-inv F
 -0.181818  0.090909  0.000000    0.00075131  15 t-inv F
 -0.090909  0.090909  0.000000    0.00075131  16 t-inv F
  0.181818  0.181818  0.000000    0.00075131  17 t-inv F
  0.272727  0.181818  0.000000    0.00075131  18 t-inv F
  0.363636  0.181818  0.000000    0.00075131  19 t-inv F
  0.454545  0.181818  0.000000    0.00075131  20 t-inv F
 -0.454545  0.181818  0.000000    0.00075131  21 t-inv F
 -0.363636  0.181818  0.000000    0.00075131  22 t-inv F
 -0.272727  0.181818  0.000000    0.00075131  23 t-inv F
 -0.181818  0.181818  0.000000    0.00075131  24 t-inv F
  0.272727  0.272727  0.000000    0.00075131  25 t-inv F
  0.363636  0.272727  0.000000    0.00075131  26 t-inv F
  0.454545  0.272727  0.000000    0.00075131  27 t-inv F
 -0.454545  0.272727  0.000000    0.00075131  28 t-inv F
 -0.363636  0.272727  0.000000    0.00075131  29 t-inv F
 -0.272727  0.272727  0.000000    0.00075131  30 t-inv F
  0.363636  0.363636  0.000000    0.00075131  31 t-inv F
  0.454545  0.363636  0.000000    0.00075131  32 t-inv F
 -0.454545  0.363636  0.000000    0.00075131  33 t-inv F
 -0.363636  0.363636  0.000000    0.00075131  34 t-inv F
  0.454545  0.454545  0.000000    0.00075131  35 t-inv F
 -0.454545  0.454545  0.000000    0.00075131  36 t-inv F
  0.272727  0.181818  0.090909    0.00075131  37 t-inv F
  0.363636  0.181818  0.090909    0.00075131  38 t-inv F
  0.454545  0.181818  0.090909    0.00075131  39 t-inv F
 -0.454545  0.181818  0.090909    0.00075131  40 t-inv F
  0.363636  0.272727  0.090909    0.00075131  41 t-inv F
  0.454545  0.272727  0.090909    0.00075131  42 t-inv F
 -0.454545  0.272727  0.090909    0.00075131  43 t-inv F
 -0.363636  0.272727  0.090909    0.00075131  44 t-inv F
 -0.272727  0.272727  0.090909    0.00075131  45 t-inv F
 -0.181818  0.272727  0.090909    0.00075131  46 t-inv F
  0.454545  0.363636  0.090909    0.00075131  47 t-inv F
 -0.454545  0.363636  0.090909    0.00075131  48 t-inv F
 -0.363636  0.363636  0.090909    0.00075131  49 t-inv F
 -0.272727  0.363636  0.090909    0.00075131  50 t-inv F
 -0.454545  0.454545  0.090909    0.00075131  51 t-inv F
 -0.363636  0.454545  0.090909    0.00075131  52 t-inv F
 -0.454545  0.363636  0.181818    0.00075131  53 t-inv F
 -0.363636  0.363636  0.181818    0.00075131  54 t-inv F
 -0.363636  0.454545  0.181818    0.00075131  55 t-inv F
 -0.272727  0.454545  0.181818    0.00075131  56 t-inv F
  0.000000  0.090909  0.000000    0.00075131   2 t-inv F
  0.000000  0.000000  0.090909    0.00075131   2 t-inv F
 -0.090909 -0.090909 -0.090909    0.00075131   2 t-inv F
 -0.090909  0.000000  0.000000    0.00075131   2 t-inv F
  0.000000 -0.090909  0.000000    0.00075131   2 t-inv F
  0.000000  0.000000 -0.090909    0.00075131   2 t-inv F
  0.090909  0.090909  0.090909    0.00075131   2 t-inv F
  0.000000  0.181818  0.000000    0.00075131   3 t-inv F
  0.000000  0.000000  0.181818    0.00075131   3 t-inv F
 -0.181818 -0.181818 -0.181818    0.00075131   3 t-inv F
 -0.181818  0.000000  0.000000    0.00075131   3 t-inv F
  0.000000 -0.181818  0.000000    0.00075131   3 t-inv F
  0.000000  0.000000 -0.181818    0.00075131   3 t-inv F
  0.181818  0.181818  0.181818    0.00075131   3 t-inv F
  0.000000  0.272727  0.000000    0.00075131   4 t-inv F
  0.000000  0.000000  0.272727    0.00075131   4 t-inv F
 -0.272727 -0.272727 -0.272727    0.00075131   4 t-inv F
 -0.272727  0.000000  0.000000    0.00075131   4 t-inv F
  0.000000 -0.272727  0.000000    0.00075131   4 t-inv F
  0.000000  0.000000 -0.272727    0.00075131   4 t-inv F
  0.272727  0.272727  0.272727    0.00075131   4 t-inv F
  0.000000  0.363636  0.000000    0.00075131   5 t-inv F
  0.000000  0.000000  0.363636    0.00075131   5 t-inv F
 -0.363636 -0.363636 -0.363636    0.00075131   5 t-inv F
 -0.363636  0.000000  0.000000    0.00075131   5 t-inv F
  0.000000 -0.363636  0.000000    0.00075131   5 t-inv F
  0.000000  0.000000 -0.363636    0.00075131   5 t-inv F
  0.363636  0.363636  0.363636    0.00075131   5 t-inv F
  0.000000  0.454545  0.000000    0.00075131   6 t-inv F
  0.000000  0.000000  0.454545    0.00075131   6 t-inv F
 -0.454545 -0.454545 -0.454545    0.00075131   6 t-inv F
 -0.454545  0.000000  0.000000    0.00075131   6 t-inv F
  0.000000 -0.454545  0.000000    0.00075131   6 t-inv F
  0.000000  0.000000 -0.454545    0.00075131   6 t-inv F
  0.454545  0.454545  0.454545    0.00075131   6 t-inv F
  0.000000  0.090909  0.090909    0.00075131   7 t-inv F
  0.090909  0.000000  0.090909    0.00075131   7 t-inv F
 -0.090909 -0.090909  0.000000    0.00075131   7 t-inv F
 -0.090909  0.000000 -0.090909    0.00075131   7 t-inv F
  0.000000 -0.090909 -0.090909    0.00075131   7 t-inv F
  0.000000  0.181818  0.090909    0.00075131   8 t-inv F
  0.090909  0.000000  0.181818    0.00075131   8 t-inv F
 -0.090909 -0.090909  0.090909    0.00075131   8 t-inv F
 -0.181818 -0.090909 -0.181818    0.00075131   8 t-inv F
  0.090909  0.181818  0.000000    0.00075131   8 t-inv F
  0.090909 -0.090909 -0.090909    0.00075131   8 t-inv F
 -0.181818 -0.181818 -0.090909    0.00075131   8 t-inv F
  0.000000  0.090909  0.181818    0.00075131   8 t-inv F
 -0.090909  0.090909 -0.090909    0.00075131   8 t-inv F
 -0.090909 -0.181818 -0.181818    0.00075131   8 t-inv F
  0.181818  0.000000  0.090909    0.00075131   8 t-inv F
 -0.181818 -0.090909  0.000000    0.00075131   8 t-inv F
  0.000000 -0.181818 -0.090909    0.00075131   8 t-inv F
 -0.090909  0.000000 -0.181818    0.00075131   8 t-inv F
  0.090909  0.090909 -0.090909    0.00075131   8 t-inv F
  0.181818  0.090909  0.181818    0.00075131   8 t-inv F
 -0.090909 -0.181818  0.000000    0.00075131   8 t-inv F
 -0.090909  0.090909  0.090909    0.00075131   8 t-inv F
  0.181818  0.181818  0.090909    0.00075131   8 t-inv F
  0.000000 -0.090909 -0.181818    0.00075131   8 t-inv F
  0.090909 -0.090909  0.090909    0.00075131   8 t-inv F
  0.090909  0.181818  0.181818    0.00075131   8 t-inv F
 -0.181818  0.000000 -0.090909    0.00075131   8 t-inv F
  0.000000  0.272727  0.090909    0.00075131   9 t-inv F
  0.090909  0.000000  0.272727    0.00075131   9 t-inv F
 -0.090909 -0.090909  0.181818    0.00075131   9 t-inv F
 -0.272727 -0.181818 -0.272727    0.00075131   9 t-inv F
  0.090909  0.272727  0.000000    0.00075131   9 t-inv F
  0.181818 -0.090909 -0.090909    0.00075131   9 t-inv F
 -0.272727 -0.272727 -0.181818    0.00075131   9 t-inv F
  0.000000  0.090909  0.272727    0.00075131   9 t-inv F
 -0.090909  0.181818 -0.090909    0.00075131   9 t-inv F
 -0.181818 -0.272727 -0.272727    0.00075131   9 t-inv F
  0.272727  0.000000  0.090909    0.00075131   9 t-inv F
 -0.272727 -0.090909  0.000000    0.00075131   9 t-inv F
  0.000000 -0.272727 -0.090909    0.00075131   9 t-inv F
 -0.090909  0.000000 -0.272727    0.00075131   9 t-inv F
  0.090909  0.090909 -0.181818    0.00075131   9 t-inv F
  0.272727  0.181818  0.272727    0.00075131   9 t-inv F
 -0.090909 -0.272727  0.000000    0.00075131   9 t-inv F
 -0.181818  0.090909  0.090909    0.00075131   9 t-inv F
  0.272727  0.272727  0.181818    0.00075131   9 t-inv F
  0.000000 -0.090909 -0.272727    0.00075131   9 t-inv F
  0.090909 -0.181818  0.090909    0.00075131   9 t-inv F
  0.181818  0.272727  0.272727    0.00075131   9 t-inv F
 -0.272727  0.000000 -0.090909    0.00075131   9 t-inv F
  0.000000  0.363636  0.090909    0.00075131  10 t-inv F
  0.090909  0.000000  0.363636    0.00075131  10 t-inv F
 -0.090909 -0.090909  0.272727    0.00075131  10 t-inv F
 -0.363636 -0.272727 -0.363636    0.00075131  10 t-inv F
  0.090909  0.363636  0.000000    0.00075131  10 t-inv F
  0.272727 -0.090909 -0.090909    0.00075131  10 t-inv F
 -0.363636 -0.363636 -0.272727    0.00075131  10 t-inv F
  0.000000  0.090909  0.363636    0.00075131  10 t-inv F
 -0.090909  0.272727 -0.090909    0.00075131  10 t-inv F
 -0.272727 -0.363636 -0.363636    0.00075131  10 t-inv F
  0.363636  0.000000  0.090909    0.00075131  10 t-inv F
 -0.363636 -0.090909  0.000000    0.00075131  10 t-inv F
  0.000000 -0.363636 -0.090909    0.00075131  10 t-inv F
 -0.090909  0.000000 -0.363636    0.00075131  10 t-inv F
  0.090909  0.090909 -0.272727    0.00075131  10 t-inv F
  0.363636  0.272727  0.363636    0.00075131  10 t-inv F
 -0.090909 -0.363636  0.000000    0.00075131  10 t-inv F
 -0.272727  0.090909  0.090909    0.00075131  10 t-inv F
  0.363636  0.363636  0.272727    0.00075131  10 t-inv F
  0.000000 -0.090909 -0.363636    0.00075131  10 t-inv F
  0.090909 -0.272727  0.090909    0.00075131  10 t-inv F
  0.272727  0.363636  0.363636    0.00075131  10 t-inv F
 -0.363636  0.000000 -0.090909    0.00075131  10 t-inv F
  0.000000  0.454545  0.090909    0.00075131  11 t-inv F
  0.090909  0.000000  0.454545    0.00075131  11 t-inv F
 -0.090909 -0.090909  0.363636    0.00075131  11 t-inv F
 -0.454545 -0.363636 -0.454545    0.00075131  11 t-inv F
  0.090909  0.454545  0.000000    0.00075131  11 t-inv F
  0.363636 -0.090909 -0.090909    0.00075131  11 t-inv F
 -0.454545 -0.454545 -0.363636    0.00075131  11 t-inv F
  0.000000  0.090909  0.454545    0.00075131  11 t-inv F
 -0.090909  0.363636 -0.090909    0.00075131  11 t-inv F
 -0.363636 -0.454545 -0.454545    0.00075131  11 t-inv F
  0.454545  0.000000  0.090909    0.00075131  11 t-inv F
 -0.454545 -0.090909  0.000000    0.00075131  11 t-inv F
  0.000000 -0.454545 -0.090909    0.00075131  11 t-inv F
 -0.090909  0.000000 -0.454545    0.00075131  11 t-inv F
  0.090909  0.090909 -0.363636    0.00075131  11 t-inv F
  0.454545  0.363636  0.454545    0.00075131  11 t-inv F
 -0.090909 -0.454545  0.000000    0.00075131  11 t-inv F
 -0.363636  0.090909  0.090909    0.00075131  11 t-inv F
  0.454545  0.454545  0.363636    0.00075131  11 t-inv F
  0.000000 -0.090909 -0.454545    0.00075131  11 t-inv F
  0.090909 -0.363636  0.090909    0.00075131  11 t-inv F
  0.363636  0.454545  0.454545    0.00075131  11 t-inv F
 -0.454545  0.000000 -0.090909    0.00075131  11 t-inv F
  0.000000 -0.454545  0.090909    0.00075131  12 t-inv F
  0.090909  0.000000 -0.454545    0.00075131  12 t-inv F
 -0.090909 -0.090909 -0.545455    0.00075131  12 t-inv F
  0.454545  0.545455  0.454545    0.00075131  12 t-inv F
  0.090909 -0.454545  0.000000    0.00075131  12 t-inv F
 -0.545455 -0.090909 -0.090909    0.00075131  12 t-inv F
  0.454545  0.454545  0.545455    0.00075131  12 t-inv F
  0.000000  0.090909 -0.454545    0.00075131  12 t-inv F
 -0.090909 -0.545455 -0.090909    0.00075131  12 t-inv F
  0.545455  0.454545  0.454545    0.00075131  12 t-inv F
 -0.454545  0.000000  0.090909    0.00075131  12 t-inv F
  0.454545 -0.090909  0.000000    0.00075131  12 t-inv F
  0.000000  0.454545 -0.090909    0.00075131  12 t-inv F
 -0.090909  0.000000  0.454545    0.00075131  12 t-inv F
  0.090909  0.090909  0.545455    0.00075131  12 t-inv F
 -0.454545 -0.545455 -0.454545    0.00075131  12 t-inv F
 -0.090909  0.454545  0.000000    0.00075131  12 t-inv F
  0.545455  0.090909  0.090909    0.00075131  12 t-inv F
 -0.454545 -0.454545 -0.545455    0.00075131  12 t-inv F
  0.000000 -0.090909  0.454545    0.00075131  12 t-inv F
  0.090909  0.545455  0.090909    0.00075131  12 t-inv F
 -0.545455 -0.454545 -0.454545    0.00075131  12 t-inv F
  0.454545  0.000000 -0.090909    0.00075131  12 t-inv F
  0.000000 -0.363636  0.090909    0.00075131  13 t-inv F
  0.090909  0.000000 -0.363636    0.00075131  13 t-inv F
 -0.090909 -0.090909 -0.454545    0.00075131  13 t-inv F
  0.363636  0.454545  0.363636    0.00075131  13 t-inv F
  0.090909 -0.363636  0.000000    0.00075131  13 t-inv F
 -0.454545 -0.090909 -0.090909    0.00075131  13 t-inv F
  0.363636  0.363636  0.454545    0.00075131  13 t-inv F
  0.000000  0.090909 -0.363636    0.00075131  13 t-inv F
 -0.090909 -0.454545 -0.090909    0.00075131  13 t-inv F
  0.454545  0.363636  0.363636    0.00075131  13 t-inv F
 -0.363636  0.000000  0.090909    0.00075131  13 t-inv F
  0.363636 -0.090909  0.000000    0.00075131  13 t-inv F
  0.000000  0.363636 -0.090909    0.00075131  13 t-inv F
 -0.090909  0.000000  0.363636    0.00075131  13 t-inv F
  0.090909  0.090909  0.454545    0.00075131  13 t-inv F
 -0.363636 -0.454545 -0.363636    0.00075131  13 t-inv F
 -0.090909  0.363636  0.000000    0.00075131  13 t-inv F
  0.454545  0.090909  0.090909    0.00075131  13 t-inv F
 -0.363636 -0.363636 -0.454545    0.00075131  13 t-inv F
  0.000000 -0.090909  0.363636    0.00075131  13 t-inv F
  0.090909  0.454545  0.090909    0.00075131  13 t-inv F
 -0.454545 -0.363636 -0.363636    0.00075131  13 t-inv F
  0.363636  0.000000 -0.090909    0.00075131  13 t-inv F
  0.000000 -0.272727  0.090909    0.00075131  14 t-inv F
  0.090909  0.000000 -0.272727    0.00075131  14 t-inv F
 -0.090909 -0.090909 -0.363636    0.00075131  14 t-inv F
  0.272727  0.363636  0.272727    0.00075131  14 t-inv F
  0.090909 -0.272727  0.000000    0.00075131  14 t-inv F
 -0.363636 -0.090909 -0.090909    0.00075131  14 t-inv F
  0.272727  0.272727  0.363636    0.00075131  14 t-inv F
  0.000000  0.090909 -0.272727    0.00075131  14 t-inv F
 -0.090909 -0.363636 -0.090909    0.00075131  14 t-inv F
  0.363636  0.272727  0.272727    0.00075131  14 t-inv F
 -0.272727  0.000000  0.090909    0.00075131  14 t-inv F
  0.272727 -0.090909  0.000000    0.00075131  14 t-inv F
  0.000000  0.272727 -0.090909    0.00075131  14 t-inv F
 -0.090909  0.000000  0.272727    0.00075131  14 t-inv F
  0.090909  0.090909  0.363636    0.00075131  14 t-inv F
 -0.272727 -0.363636 -0.272727    0.00075131  14 t-inv F
 -0.090909  0.272727  0.000000    0.00075131  14 t-inv F
  0.363636  0.090909  0.090909    0.00075131  14 t-inv F
 -0.272727 -0.272727 -0.363636    0.00075131  14 t-inv F
  0.000000 -0.090909  0.272727    0.00075131  14 t-inv F
  0.090909  0.363636  0.090909    0.00075131  14 t-inv F
 -0.363636 -0.272727 -0.272727    0.00075131  14 t-inv F
  0.272727  0.000000 -0.090909    0.00075131  14 t-inv F
  0.000000 -0.181818  0.090909    0.00075131  15 t-inv F
  0.090909  0.000000 -0.181818    0.00075131  15 t-inv F
 -0.090909 -0.090909 -0.272727    0.00075131  15 t-inv F
  0.181818  0.272727  0.181818    0.00075131  15 t-inv F
  0.090909 -0.181818  0.000000    0.00075131  15 t-inv F
 -0.272727 -0.090909 -0.090909    0.00075131  15 t-inv F
  0.181818  0.181818  0.272727    0.00075131  15 t-inv F
  0.000000  0.090909 -0.181818    0.00075131  15 t-inv F
 -0.090909 -0.272727 -0.090909    0.00075131  15 t-inv F
  0.272727  0.181818  0.181818    0.00075131  15 t-inv F
 -0.181818  0.000000  0.090909    0.00075131  15 t-inv F
  0.181818 -0.090909  0.000000    0.00075131  15 t-inv F
  0.000000  0.181818 -0.090909    0.00075131  15 t-inv F
 -0.090909  0.000000  0.181818    0.00075131  15 t-inv F
  0.090909  0.090909  0.272727    0.00075131  15 t-inv F
 -0.181818 -0.272727 -0.181818    0.00075131  15 t-inv F
 -0.090909  0.181818  0.000000    0.00075131  15 t-inv F
  0.272727  0.090909  0.090909    0.00075131  15 t-inv F
 -0.181818 -0.181818 -0.272727    0.00075131  15 t-inv F
  0.000000 -0.090909  0.181818    0.00075131  15 t-inv F
  0.090909  0.272727  0.090909    0.00075131  15 t-inv F
 -0.272727 -0.181818 -0.181818    0.00075131  15 t-inv F
  0.181818  0.000000 -0.090909    0.00075131  15 t-inv F
  0.000000 -0.090909  0.090909    0.00075131  16 t-inv F
  0.090909  0.000000 -0.090909    0.00075131  16 t-inv F
 -0.090909 -0.090909 -0.181818    0.00075131  16 t-inv F
  0.090909  0.181818  0.090909    0.00075131  16 t-inv F
  0.090909 -0.090909  0.000000    0.00075131  16 t-inv F
 -0.181818 -0.090909 -0.090909    0.00075131  16 t-inv F
  0.090909  0.090909  0.181818    0.00075131  16 t-inv F
  0.000000  0.090909 -0.090909    0.00075131  16 t-inv F
 -0.090909 -0.181818 -0.090909    0.00075131  16 t-inv F
  0.181818  0.090909  0.090909    0.00075131  16 t-inv F
 -0.090909  0.000000  0.090909    0.00075131  16 t-inv F
  0.000000  0.181818  0.181818    0.00075131  17 t-inv F
  0.181818  0.000000  0.181818    0.00075131  17 t-inv F
 -0.181818 -0.181818  0.000000    0.00075131  17 t-inv F
 -0.181818  0.000000 -0.181818    0.00075131  17 t-inv F
  0.000000 -0.181818 -0.181818    0.00075131  17 t-inv F
  0.000000  0.272727  0.181818    0.00075131  18 t-inv F
  0.181818  0.000000  0.272727    0.00075131  18 t-inv F
 -0.181818 -0.181818  0.090909    0.00075131  18 t-inv F
 -0.272727 -0.090909 -0.272727    0.00075131  18 t-inv F
  0.181818  0.272727  0.000000    0.00075131  18 t-inv F
  0.090909 -0.181818 -0.181818    0.00075131  18 t-inv F
 -0.272727 -0.272727 -0.090909    0.00075131  18 t-inv F
  0.000000  0.181818  0.272727    0.00075131  18 t-inv F
 -0.181818  0.090909 -0.181818    0.00075131  18 t-inv F
 -0.090909 -0.272727 -0.272727    0.00075131  18 t-inv F
  0.272727  0.000000  0.181818    0.00075131  18 t-inv F
 -0.272727 -0.181818  0.000000    0.00075131  18 t-inv F
  0.000000 -0.272727 -0.181818    0.00075131  18 t-inv F
 -0.181818  0.000000 -0.272727    0.00075131  18 t-inv F
  0.181818  0.181818 -0.090909    0.00075131  18 t-inv F
  0.272727  0.090909  0.272727    0.00075131  18 t-inv F
 -0.181818 -0.272727  0.000000    0.00075131  18 t-inv F
 -0.090909  0.181818  0.181818    0.00075131  18 t-inv F
  0.272727  0.272727  0.090909    0.00075131  18 t-inv F
  0.000000 -0.181818 -0.272727    0.00075131  18 t-inv F
  0.181818 -0.090909  0.181818    0.00075131  18 t-inv F
  0.090909  0.272727  0.272727    0.00075131  18 t-inv F
 -0.272727  0.000000 -0.181818    0.00075131  18 t-inv F
  0.000000  0.363636  0.181818    0.00075131  19 t-inv F
  0.181818  0.000000  0.363636    0.00075131  19 t-inv F
 -0.181818 -0.181818  0.181818    0.00075131  19 t-inv F
 -0.363636 -0.181818 -0.363636    0.00075131  19 t-inv F
  0.181818  0.363636  0.000000    0.00075131  19 t-inv F
  0.181818 -0.181818 -0.181818    0.00075131  19 t-inv F
 -0.363636 -0.363636 -0.181818    0.00075131  19 t-inv F
  0.000000  0.181818  0.363636    0.00075131  19 t-inv F
 -0.181818  0.181818 -0.181818    0.00075131  19 t-inv F
 -0.181818 -0.363636 -0.363636    0.00075131  19 t-inv F
  0.363636  0.000000  0.181818    0.00075131  19 t-inv F
 -0.363636 -0.181818  0.000000    0.00075131  19 t-inv F
  0.000000 -0.363636 -0.181818    0.00075131  19 t-inv F
 -0.181818  0.000000 -0.363636    0.00075131  19 t-inv F
  0.181818  0.181818 -0.181818    0.00075131  19 t-inv F
  0.363636  0.181818  0.363636    0.00075131  19 t-inv F
 -0.181818 -0.363636  0.000000    0.00075131  19 t-inv F
 -0.181818  0.181818  0.181818    0.00075131  19 t-inv F
  0.363636  0.363636  0.181818    0.00075131  19 t-inv F
  0.000000 -0.181818 -0.363636    0.00075131  19 t-inv F
  0.181818 -0.181818  0.181818    0.00075131  19 t-inv F
  0.181818  0.363636  0.363636    0.00075131  19 t-inv F
 -0.363636  0.000000 -0.181818    0.00075131  19 t-inv F
  0.000000  0.454545  0.181818    0.00075131  20 t-inv F
  0.181818  0.000000  0.454545    0.00075131  20 t-inv F
 -0.181818 -0.181818  0.272727    0.00075131  20 t-inv F
 -0.454545 -0.272727 -0.454545    0.00075131  20 t-inv F
  0.181818  0.454545  0.000000    0.00075131  20 t-inv F
  0.272727 -0.181818 -0.181818    0.00075131  20 t-inv F
 -0.454545 -0.454545 -0.272727    0.00075131  20 t-inv F
  0.000000  0.181818  0.454545    0.00075131  20 t-inv F
 -0.181818  0.272727 -0.181818    0.00075131  20 t-inv F
 -0.272727 -0.454545 -0.454545    0.00075131  20 t-inv F
  0.454545  0.000000  0.181818    0.00075131  20 t-inv F
 -0.454545 -0.181818  0.000000    0.00075131  20 t-inv F
  0.000000 -0.454545 -0.181818    0.00075131  20 t-inv F
 -0.181818  0.000000 -0.454545    0.00075131  20 t-inv F
  0.181818  0.181818 -0.272727    0.00075131  20 t-inv F
  0.454545  0.272727  0.454545    0.00075131  20 t-inv F
 -0.181818 -0.454545  0.000000    0.00075131  20 t-inv F
 -0.272727  0.181818  0.181818    0.00075131  20 t-inv F
  0.454545  0.454545  0.272727    0.00075131  20 t-inv F
  0.000000 -0.181818 -0.454545    0.00075131  20 t-inv F
  0.181818 -0.272727  0.181818    0.00075131  20 t-inv F
  0.272727  0.454545  0.454545    0.00075131  20 t-inv F
 -0.454545  0.000000 -0.181818    0.00075131  20 t-inv F
  0.000000 -0.454545  0.181818    0.00075131  21 t-inv F
  0.181818  0.000000 -0.454545    0.00075131  21 t-inv F
 -0.181818 -0.181818 -0.636364    0.00075131  21 t-inv F
  0.454545  0.636364  0.454545    0.00075131  21 t-inv F
  0.181818 -0.454545  0.000000    0.00075131  21 t-inv F
 -0.636364 -0.181818 -0.181818    0.00075131  21 t-inv F
  0.454545  0.454545  0.636364    0.00075131  21 t-inv F
  0.000000  0.181818 -0.454545    0.00075131  21 t-inv F
 -0.181818 -0.636364 -0.181818    0.00075131  21 t-inv F
  0.636364  0.454545  0.454545    0.00075131  21 t-inv F
 -0.454545  0.000000  0.181818    0.00075131  21 t-inv F
  0.454545 -0.181818  0.000000    0.00075131  21 t-inv F
  0.000000  0.454545 -0.181818    0.00075131  21 t-inv F
 -0.181818  0.000000  0.454545    0.00075131  21 t-inv F
  0.181818  0.181818  0.636364    0.00075131  21 t-inv F
 -0.454545 -0.636364 -0.454545    0.00075131  21 t-inv F
 -0.181818  0.454545  0.000000    0.00075131  21 t-inv F
  0.636364  0.181818  0.181818    0.00075131  21 t-inv F
 -0.454545 -0.454545 -0.636364    0.00075131  21 t-inv F
  0.000000 -0.181818  0.454545    0.00075131  21 t-inv F
  0.181818  0.636364  0.181818    0.00075131  21 t-inv F
 -0.636364 -0.454545 -0.454545    0.00075131  21 t-inv F
  0.454545  0.000000 -0.181818    0.00075131  21 t-inv F
  0.000000 -0.363636  0.181818    0.00075131  22 t-inv F
  0.181818  0.000000 -0.363636    0.00075131  22 t-inv F
 -0.181818 -0.181818 -0.545455    0.00075131  22 t-inv F
  0.363636  0.545455  0.363636    0.00075131  22 t-inv F
  0.181818 -0.363636  0.000000    0.00075131  22 t-inv F
 -0.545455 -0.181818 -0.181818    0.00075131  22 t-inv F
  0.363636  0.363636  0.545455    0.00075131  22 t-inv F
  0.000000  0.181818 -0.363636    0.00075131  22 t-inv F
 -0.181818 -0.545455 -0.181818    0.00075131  22 t-inv F
  0.545455  0.363636  0.363636    0.00075131  22 t-inv F
 -0.363636  0.000000  0.181818    0.00075131  22 t-inv F
  0.363636 -0.181818  0.000000    0.00075131  22 t-inv F
  0.000000  0.363636 -0.181818    0.00075131  22 t-inv F
 -0.181818  0.000000  0.363636    0.00075131  22 t-inv F
  0.181818  0.181818  0.545455    0.00075131  22 t-inv F
 -0.363636 -0.545455 -0.363636    0.00075131  22 t-inv F
 -0.181818  0.363636  0.000000    0.00075131  22 t-inv F
  0.545455  0.181818  0.181818    0.00075131  22 t-inv F
 -0.363636 -0.363636 -0.545455    0.00075131  22 t-inv F
  0.000000 -0.181818  0.363636    0.00075131  22 t-inv F
  0.181818  0.545455  0.181818    0.00075131  22 t-inv F
 -0.545455 -0.363636 -0.363636    0.00075131  22 t-inv F
  0.363636  0.000000 -0.181818    0.00075131  22 t-inv F
  0.000000 -0.272727  0.181818    0.00075131  23 t-inv F
  0.181818  0.000000 -0.272727    0.00075131  23 t-inv F
 -0.181818 -0.181818 -0.454545    0.00075131  23 t-inv F
  0.272727  0.454545  0.272727    0.00075131  23 t-inv F
  0.181818 -0.272727  0.000000    0.00075131  23 t-inv F
 -0.454545 -0.181818 -0.181818    0.00075131  23 t-inv F
  0.272727  0.272727  0.454545    0.00075131  23 t-inv F
  0.000000  0.181818 -0.272727    0.00075131  23 t-inv F
 -0.181818 -0.454545 -0.181818    0.00075131  23 t-inv F
  0.454545  0.272727  0.272727    0.00075131  23 t-inv F
 -0.272727  0.000000  0.181818    0.00075131  23 t-inv F
  0.272727 -0.181818  0.000000    0.00075131  23 t-inv F
  0.000000  0.272727 -0.181818    0.00075131  23 t-inv F
 -0.181818  0.000000  0.272727    0.00075131  23 t-inv F
  0.181818  0.181818  0.454545    0.00075131  23 t-inv F
 -0.272727 -0.454545 -0.272727    0.00075131  23 t-inv F
 -0.181818  0.272727  0.000000    0.00075131  23 t-inv F
  0.454545  0.181818  0.181818    0.00075131  23 t-inv F
 -0.272727 -0.272727 -0.454545    0.00075131  23 t-inv F
  0.000000 -0.181818  0.272727    0.00075131  23 t-inv F
  0.181818  0.454545  0.181818    0.00075131  23 t-inv F
 -0.454545 -0.272727 -0.272727    0.00075131  23 t-inv F
  0.272727  0.000000 -0.181818    0.00075131  23 t-inv F
  0.000000 -0.181818  0.181818    0.00075131  24 t-inv F
  0.181818  0.000000 -0.181818    0.00075131  24 t-inv F
 -0.181818 -0.181818 -0.363636    0.00075131  24 t-inv F
  0.181818  0.363636  0.181818    0.00075131  24 t-inv F
  0.181818 -0.181818  0.000000    0.00075131  24 t-inv F
 -0.363636 -0.181818 -0.181818    0.00075131  24 t-inv F
  0.181818  0.181818  0.363636    0.00075131  24 t-inv F
  0.000000  0.181818 -0.181818    0.00075131  24 t-inv F
 -0.181818 -0.363636 -0.181818    0.00075131  24 t-inv F
  0.363636  0.181818  0.181818    0.00075131  24 t-inv F
 -0.181818  0.000000  0.181818    0.00075131  24 t-inv F
  0.000000  0.272727  0.272727    0.00075131  25 t-inv F
  0.272727  0.000000  0.272727    0.00075131  25 t-inv F
 -0.272727 -0.272727  0.000000    0.00075131  25 t-inv F
 -0.272727  0.000000 -0.272727    0.00075131  25 t-inv F
  0.000000 -0.272727 -0.272727    0.00075131  25 t-inv F
  0.000000  0.363636  0.272727    0.00075131  26 t-inv F
  0.272727  0.000000  0.363636    0.00075131  26 t-inv F
 -0.272727 -0.272727  0.090909    0.00075131  26 t-inv F
 -0.363636 -0.090909 -0.363636    0.00075131  26 t-inv F
  0.272727  0.363636  0.000000    0.00075131  26 t-inv F
  0.090909 -0.272727 -0.272727    0.00075131  26 t-inv F
 -0.363636 -0.363636 -0.090909    0.00075131  26 t-inv F
  0.000000  0.272727  0.363636    0.00075131  26 t-inv F
 -0.272727  0.090909 -0.272727    0.00075131  26 t-inv F
 -0.090909 -0.363636 -0.363636    0.00075131  26 t-inv F
  0.363636  0.000000  0.272727    0.00075131  26 t-inv F
 -0.363636 -0.272727  0.000000    0.00075131  26 t-inv F
  0.000000 -0.363636 -0.272727    0.00075131  26 t-inv F
 -0.272727  0.000000 -0.363636    0.00075131  26 t-inv F
  0.272727  0.272727 -0.090909    0.00075131  26 t-inv F
  0.363636  0.090909  0.363636    0.00075131  26 t-inv F
 -0.272727 -0.363636  0.000000    0.00075131  26 t-inv F
 -0.090909  0.272727  0.272727    0.00075131  26 t-inv F
  0.363636  0.363636  0.090909    0.00075131  26 t-inv F
  0.000000 -0.272727 -0.363636    0.00075131  26 t-inv F
  0.272727 -0.090909  0.272727    0.00075131  26 t-inv F
  0.090909  0.363636  0.363636    0.00075131  26 t-inv F
 -0.363636  0.000000 -0.272727    0.00075131  26 t-inv F
  0.000000  0.454545  0.272727    0.00075131  27 t-inv F
  0.272727  0.000000  0.454545    0.00075131  27 t-inv F
 -0.272727 -0.272727  0.181818    0.00075131  27 t-inv F
 -0.454545 -0.181818 -0.454545    0.00075131  27 t-inv F
  0.272727  0.454545  0.000000    0.00075131  27 t-inv F
  0.181818 -0.272727 -0.272727    0.00075131  27 t-inv F
 -0.454545 -0.454545 -0.181818    0.00075131  27 t-inv F
  0.000000  0.272727  0.454545    0.00075131  27 t-inv F
 -0.272727  0.181818 -0.272727    0.00075131  27 t-inv F
 -0.181818 -0.454545 -0.454545    0.00075131  27 t-inv F
  0.454545  0.000000  0.272727    0.00075131  27 t-inv F
 -0.454545 -0.272727  0.000000    0.00075131  27 t-inv F
  0.000000 -0.454545 -0.272727    0.00075131  27 t-inv F
 -0.272727  0.000000 -0.454545    0.00075131  27 t-inv F
  0.272727  0.272727 -0.181818    0.00075131  27 t-inv F
  0.454545  0.181818  0.454545    0.00075131  27 t-inv F
 -0.272727 -0.454545  0.000000    0.00075131  27 t-inv F
 -0.181818  0.272727  0.272727    0.00075131  27 t-inv F
  0.454545  0.454545  0.181818    0.00075131  27 t-inv F
  0.000000 -0.272727 -0.454545    0.00075131  27 t-inv F
  0.272727 -0.181818  0.272727    0.00075131  27 t-inv F
  0.181818  0.454545  0.454545    0.00075131  27 t-inv F
 -0.454545  0.000000 -0.272727    0.00075131  27 t-inv F
  0.000000 -0.454545  0.272727    0.00075131  28 t-inv F
  0.272727  0.000000 -0.454545    0.00075131  28 t-inv F
 -0.272727 -0.272727 -0.727273    0.00075131  28 t-inv F
  0.454545  0.727273  0.454545    0.00075131  28 t-inv F
  0.272727 -0.454545  0.000000    0.00075131  28 t-inv F
 -0.727273 -0.272727 -0.272727    0.00075131  28 t-inv F
  0.454545  0.454545  0.727273    0.00075131  28 t-inv F
  0.000000  0.272727 -0.454545    0.00075131  28 t-inv F
 -0.272727 -0.727273 -0.272727    0.00075131  28 t-inv F
  0.727273  0.454545  0.454545    0.00075131  28 t-inv F
 -0.454545  0.000000  0.272727    0.00075131  28 t-inv F
  0.454545 -0.272727  0.000000    0.00075131  28 t-inv F
  0.000000  0.454545 -0.272727    0.00075131  28 t-inv F
 -0.272727  0.000000  0.454545    0.00075131  28 t-inv F
  0.272727  0.272727  0.727273    0.00075131  28 t-inv F
 -0.454545 -0.727273 -0.454545    0.00075131  28 t-inv F
 -0.272727  0.454545  0.000000    0.00075131  28 t-inv F
  0.727273  0.272727  0.272727    0.00075131  28 t-inv F
 -0.454545 -0.454545 -0.727273    0.00075131  28 t-inv F
  0.000000 -0.272727  0.454545    0.00075131  28 t-inv F
  0.272727  0.727273  0.272727    0.00075131  28 t-inv F
 -0.727273 -0.454545 -0.454545    0.00075131  28 t-inv F
  0.454545  0.000000 -0.272727    0.00075131  28 t-inv F
  0.000000 -0.363636  0.272727    0.00075131  29 t-inv F
  0.272727  0.000000 -0.363636    0.00075131  29 t-inv F
 -0.272727 -0.272727 -0.636364    0.00075131  29 t-inv F
  0.363636  0.636364  0.363636    0.00075131  29 t-inv F
  0.272727 -0.363636  0.000000    0.00075131  29 t-inv F
 -0.636364 -0.272727 -0.272727    0.00075131  29 t-inv F
  0.363636  0.363636  0.636364    0.00075131  29 t-inv F
  0.000000  0.272727 -0.363636    0.00075131  29 t-inv F
 -0.272727 -0.636364 -0.272727    0.00075131  29 t-inv F
  0.636364  0.363636  0.363636    0.00075131  29 t-inv F
 -0.363636  0.000000  0.272727    0.00075131  29 t-inv F
  0.363636 -0.272727  0.000000    0.00075131  29 t-inv F
  0.000000  0.363636 -0.272727    0.00075131  29 t-inv F
 -0.272727  0.000000  0.363636    0.00075131  29 t-inv F
  0.272727  0.272727  0.636364    0.00075131  29 t-inv F
 -0.363636 -0.636364 -0.363636    0.00075131  29 t-inv F
 -0.272727  0.363636  0.000000    0.00075131  29 t-inv F
  0.636364  0.272727  0.272727    0.00075131  29 t-inv F
 -0.363636 -0.363636 -0.636364    0.00075131  29 t-inv F
  0.000000 -0.272727  0.363636    0.00075131  29 t-inv F
  0.272727  0.636364  0.272727    0.00075131  29 t-inv F
 -0.636364 -0.363636 -0.363636    0.00075131  29 t-inv F
  0.363636  0.000000 -0.272727    0.00075131  29 t-inv F
  0.000000 -0.272727  0.272727    0.00075131  30 t-inv F
  0.272727  0.000000 -0.272727    0.00075131  30 t-inv F
 -0.272727 -0.272727 -0.545455    0.00075131  30 t-inv F
  0.272727  0.545455  0.272727    0.00075131  30 t-inv F
  0.272727 -0.272727  0.000000    0.00075131  30 t-inv F
 -0.545455 -0.272727 -0.272727    0.00075131  30 t-inv F
  0.272727  0.272727  0.545455    0.00075131  30 t-inv F
  0.000000  0.272727 -0.272727    0.00075131  30 t-inv F
 -0.272727 -0.545455 -0.272727    0.00075131  30 t-inv F
  0.545455  0.272727  0.272727    0.00075131  30 t-inv F
 -0.272727  0.000000  0.272727    0.00075131  30 t-inv F
  0.000000  0.363636  0.363636    0.00075131  31 t-inv F
  0.363636  0.000000  0.363636    0.00075131  31 t-inv F
 -0.363636 -0.363636  0.000000    0.00075131  31 t-inv F
 -0.363636  0.000000 -0.363636    0.00075131  31 t-inv F
  0.000000 -0.363636 -0.363636    0.00075131  31 t-inv F
  0.000000  0.454545  0.363636    0.00075131  32 t-inv F
  0.363636  0.000000  0.454545    0.00075131  32 t-inv F
 -0.363636 -0.363636  0.090909    0.00075131  32 t-inv F
 -0.454545 -0.090909 -0.454545    0.00075131  32 t-inv F
  0.363636  0.454545  0.000000    0.00075131  32 t-inv F
  0.090909 -0.363636 -0.363636    0.00075131  32 t-inv F
 -0.454545 -0.454545 -0.090909    0.00075131  32 t-inv F
  0.000000  0.363636  0.454545    0.00075131  32 t-inv F
 -0.363636  0.090909 -0.363636    0.00075131  32 t-inv F
 -0.090909 -0.454545 -0.454545    0.00075131  32 t-inv F
  0.454545  0.000000  0.363636    0.00075131  32 t-inv F
 -0.454545 -0.363636  0.000000    0.00075131  32 t-inv F
  0.000000 -0.454545 -0.363636    0.00075131  32 t-inv F
 -0.363636  0.000000 -0.454545    0.00075131  32 t-inv F
  0.363636  0.363636 -0.090909    0.00075131  32 t-inv F
  0.454545  0.090909  0.454545    0.00075131  32 t-inv F
 -0.363636 -0.454545  0.000000    0.00075131  32 t-inv F
 -0.090909  0.363636  0.363636    0.00075131  32 t-inv F
  0.454545  0.454545  0.090909    0.00075131  32 t-inv F
  0.000000 -0.363636 -0.454545    0.00075131  32 t-inv F
  0.363636 -0.090909  0.363636    0.00075131  32 t-inv F
  0.090909  0.454545  0.454545    0.00075131  32 t-inv F
 -0.454545  0.000000 -0.363636    0.00075131  32 t-inv F
  0.000000 -0.454545  0.363636    0.00075131  33 t-inv F
  0.363636  0.000000 -0.454545    0.00075131  33 t-inv F
 -0.363636 -0.363636 -0.818182    0.00075131  33 t-inv F
  0.454545  0.818182  0.454545    0.00075131  33 t-inv F
  0.363636 -0.454545  0.000000    0.00075131  33 t-inv F
 -0.818182 -0.363636 -0.363636    0.00075131  33 t-inv F
  0.454545  0.454545  0.818182    0.00075131  33 t-inv F
  0.000000  0.363636 -0.454545    0.00075131  33 t-inv F
 -0.363636 -0.818182 -0.363636    0.00075131  33 t-inv F
  0.818182  0.454545  0.454545    0.00075131  33 t-inv F
 -0.454545  0.000000  0.363636    0.00075131  33 t-inv F
  0.454545 -0.363636  0.000000    0.00075131  33 t-inv F
  0.000000  0.454545 -0.363636    0.00075131  33 t-inv F
 -0.363636  0.000000  0.454545    0.00075131  33 t-inv F
  0.363636  0.363636  0.818182    0.00075131  33 t-inv F
 -0.454545 -0.818182 -0.454545    0.00075131  33 t-inv F
 -0.363636  0.454545  0.000000    0.00075131  33 t-inv F
  0.818182  0.363636  0.363636    0.00075131  33 t-inv F
 -0.454545 -0.454545 -0.818182    0.00075131  33 t-inv F
  0.000000 -0.363636  0.454545    0.00075131  33 t-inv F
  0.363636  0.818182  0.363636    0.00075131  33 t-inv F
 -0.818182 -0.454545 -0.454545    0.00075131  33 t-inv F
  0.454545  0.000000 -0.363636    0.00075131  33 t-inv F
  0.000000 -0.363636  0.363636    0.00075131  34 t-inv F
  0.363636  0.000000 -0.363636    0.00075131  34 t-inv F
 -0.363636 -0.363636 -0.727273    0.00075131  34 t-inv F
  0.363636  0.727273  0.363636    0.00075131  34 t-inv F
  0.363636 -0.363636  0.000000    0.00075131  34 t-inv F
 -0.727273 -0.363636 -0.363636    0.00075131  34 t-inv F
  0.363636  0.363636  0.727273    0.00075131  34 t-inv F
  0.000000  0.363636 -0.363636    0.00075131  34 t-inv F
 -0.363636 -0.727273 -0.363636    0.00075131  34 t-inv F
  0.727273  0.363636  0.363636    0.00075131  34 t-inv F
 -0.363636  0.000000  0.363636    0.00075131  34 t-inv F
  0.000000  0.454545  0.454545    0.00075131  35 t-inv F
  0.454545  0.000000  0.454545    0.00075131  35 t-inv F
 -0.454545 -0.454545  0.000000    0.00075131  35 t-inv F
 -0.454545  0.000000 -0.454545    0.00075131  35 t-inv F
  0.000000 -0.454545 -0.454545    0.00075131  35 t-inv F
  0.000000 -0.454545  0.454545    0.00075131  36 t-inv F
  0.454545  0.000000 -0.454545    0.00075131  36 t-inv F
 -0.454545 -0.454545 -0.909091    0.00075131  36 t-inv F
  0.454545  0.909091  0.454545    0.00075131  36 t-inv F
  0.454545 -0.454545  0.000000    0.00075131  36 t-inv F
 -0.909091 -0.454545 -0.454545    0.00075131  36 t-inv F
  0.454545  0.454545  0.909091    0.00075131  36 t-inv F
  0.000000  0.454545 -0.454545    0.00075131  36 t-inv F
 -0.454545 -0.909091 -0.454545    0.00075131  36 t-inv F
  0.909091  0.454545  0.454545    0.00075131  36 t-inv F
 -0.454545  0.000000  0.454545    0.00075131  36 t-inv F
  0.090909  0.272727  0.181818    0.00075131  37 t-inv F
  0.181818  0.090909  0.272727    0.00075131  37 t-inv F
 -0.181818 -0.090909  0.090909    0.00075131  37 t-inv F
 -0.272727 -0.090909 -0.181818    0.00075131  37 t-inv F
 -0.090909  0.181818  0.090909    0.00075131  37 t-inv F
  0.090909  0.181818 -0.090909    0.00075131  37 t-inv F
  0.090909 -0.090909 -0.181818    0.00075131  37 t-inv F
 -0.181818 -0.090909 -0.272727    0.00075131  37 t-inv F
 -0.181818 -0.272727 -0.090909    0.00075131  37 t-inv F
  0.090909 -0.090909  0.181818    0.00075131  37 t-inv F
  0.090909 -0.181818 -0.090909    0.00075131  37 t-inv F
 -0.090909  0.090909  0.181818    0.00075131  37 t-inv F
 -0.181818  0.090909 -0.090909    0.00075131  37 t-inv F
 -0.272727 -0.181818 -0.090909    0.00075131  37 t-inv F
 -0.090909 -0.181818 -0.272727    0.00075131  37 t-inv F
  0.181818  0.090909 -0.090909    0.00075131  37 t-inv F
 -0.090909  0.090909 -0.181818    0.00075131  37 t-inv F
  0.181818 -0.090909  0.090909    0.00075131  37 t-inv F
 -0.090909 -0.181818  0.090909    0.00075131  37 t-inv F
 -0.090909 -0.272727 -0.181818    0.00075131  37 t-inv F
  0.272727  0.090909  0.181818    0.00075131  37 t-inv F
  0.181818  0.272727  0.090909    0.00075131  37 t-inv F
  0.090909  0.181818  0.272727    0.00075131  37 t-inv F
  0.090909  0.363636  0.181818    0.00075131  38 t-inv F
  0.181818  0.090909  0.363636    0.00075131  38 t-inv F
 -0.181818 -0.090909  0.181818    0.00075131  38 t-inv F
 -0.363636 -0.181818 -0.272727    0.00075131  38 t-inv F
 -0.090909  0.272727  0.090909    0.00075131  38 t-inv F
  0.090909  0.272727 -0.090909    0.00075131  38 t-inv F
  0.181818 -0.090909 -0.181818    0.00075131  38 t-inv F
 -0.272727 -0.181818 -0.363636    0.00075131  38 t-inv F
 -0.272727 -0.363636 -0.181818    0.00075131  38 t-inv F
  0.090909 -0.090909  0.272727    0.00075131  38 t-inv F
  0.181818 -0.181818 -0.090909    0.00075131  38 t-inv F
 -0.090909  0.090909  0.272727    0.00075131  38 t-inv F
 -0.181818  0.181818 -0.090909    0.00075131  38 t-inv F
 -0.363636 -0.272727 -0.181818    0.00075131  38 t-inv F
 -0.181818 -0.272727 -0.363636    0.00075131  38 t-inv F
  0.272727  0.090909 -0.090909    0.00075131  38 t-inv F
 -0.090909  0.181818 -0.181818    0.00075131  38 t-inv F
  0.272727 -0.090909  0.090909    0.00075131  38 t-inv F
 -0.090909 -0.181818  0.181818    0.00075131  38 t-inv F
 -0.181818 -0.363636 -0.272727    0.00075131  38 t-inv F
  0.363636  0.090909  0.181818    0.00075131  38 t-inv F
  0.181818  0.363636  0.090909    0.00075131  38 t-inv F
  0.090909  0.181818  0.363636    0.00075131  38 t-inv F
 -0.363636 -0.181818 -0.090909    0.00075131  38 t-inv F
 -0.090909 -0.363636 -0.181818    0.00075131  38 t-inv F
 -0.181818 -0.090909 -0.363636    0.00075131  38 t-inv F
  0.181818  0.090909 -0.181818    0.00075131  38 t-inv F
  0.363636  0.181818  0.272727    0.00075131  38 t-inv F
  0.090909 -0.272727 -0.090909    0.00075131  38 t-inv F
 -0.090909 -0.272727  0.090909    0.00075131  38 t-inv F
 -0.181818  0.090909  0.181818    0.00075131  38 t-inv F
  0.272727  0.181818  0.363636    0.00075131  38 t-inv F
  0.272727  0.363636  0.181818    0.00075131  38 t-inv F
 -0.090909  0.090909 -0.272727    0.00075131  38 t-inv F
 -0.181818  0.181818  0.090909    0.00075131  38 t-inv F
  0.090909 -0.090909 -0.272727    0.00075131  38 t-inv F
  0.181818 -0.181818  0.090909    0.00075131  38 t-inv F
  0.363636  0.272727  0.181818    0.00075131  38 t-inv F
  0.181818  0.272727  0.363636    0.00075131  38 t-inv F
 -0.272727 -0.090909  0.090909    0.00075131  38 t-inv F
  0.090909 -0.181818  0.181818    0.00075131  38 t-inv F
 -0.272727  0.090909 -0.090909    0.00075131  38 t-inv F
  0.090909  0.181818 -0.181818    0.00075131  38 t-inv F
  0.181818  0.363636  0.272727    0.00075131  38 t-inv F
 -0.363636 -0.090909 -0.181818    0.00075131  38 t-inv F
 -0.181818 -0.363636 -0.090909    0.00075131  38 t-inv F
 -0.090909 -0.181818 -0.363636    0.00075131  38 t-inv F
  0.090909  0.454545  0.181818    0.00075131  39 t-inv F
  0.181818  0.090909  0.454545    0.00075131  39 t-inv F
 -0.181818 -0.090909  0.272727    0.00075131  39 t-inv F
 -0.454545 -0.272727 -0.363636    0.00075131  39 t-inv F
 -0.090909  0.363636  0.090909    0.00075131  39 t-inv F
  0.090909  0.363636 -0.090909    0.00075131  39 t-inv F
  0.272727 -0.090909 -0.181818    0.00075131  39 t-inv F
 -0.363636 -0.272727 -0.454545    0.00075131  39 t-inv F
 -0.363636 -0.454545 -0.272727    0.00075131  39 t-inv F
  0.090909 -0.090909  0.363636    0.00075131  39 t-inv F
  0.272727 -0.181818 -0.090909    0.00075131  39 t-inv F
 -0.090909  0.090909  0.363636    0.00075131  39 t-inv F
 -0.181818  0.272727 -0.090909    0.00075131  39 t-inv F
 -0.454545 -0.363636 -0.272727    0.00075131  39 t-inv F
 -0.272727 -0.363636 -0.454545    0.00075131  39 t-inv F
  0.363636  0.090909 -0.090909    0.00075131  39 t-inv F
 -0.090909  0.272727 -0.181818    0.00075131  39 t-inv F
  0.363636 -0.090909  0.090909    0.00075131  39 t-inv F
 -0.090909 -0.181818  0.272727    0.00075131  39 t-inv F
 -0.272727 -0.454545 -0.363636    0.00075131  39 t-inv F
  0.454545  0.090909  0.181818    0.00075131  39 t-inv F
  0.181818  0.454545  0.090909    0.00075131  39 t-inv F
  0.090909  0.181818  0.454545    0.00075131  39 t-inv F
 -0.454545 -0.181818 -0.090909    0.00075131  39 t-inv F
 -0.090909 -0.454545 -0.181818    0.00075131  39 t-inv F
 -0.181818 -0.090909 -0.454545    0.00075131  39 t-inv F
  0.181818  0.090909 -0.272727    0.00075131  39 t-inv F
  0.454545  0.272727  0.363636    0.00075131  39 t-inv F
  0.090909 -0.363636 -0.090909    0.00075131  39 t-inv F
 -0.090909 -0.363636  0.090909    0.00075131  39 t-inv F
 -0.272727  0.090909  0.181818    0.00075131  39 t-inv F
  0.363636  0.272727  0.454545    0.00075131  39 t-inv F
  0.363636  0.454545  0.272727    0.00075131  39 t-inv F
 -0.090909  0.090909 -0.363636    0.00075131  39 t-inv F
 -0.272727  0.181818  0.090909    0.00075131  39 t-inv F
  0.090909 -0.090909 -0.363636    0.00075131  39 t-inv F
  0.181818 -0.272727  0.090909    0.00075131  39 t-inv F
  0.454545  0.363636  0.272727    0.00075131  39 t-inv F
  0.272727  0.363636  0.454545    0.00075131  39 t-inv F
 -0.363636 -0.090909  0.090909    0.00075131  39 t-inv F
  0.090909 -0.272727  0.181818    0.00075131  39 t-inv F
 -0.363636  0.090909 -0.090909    0.00075131  39 t-inv F
  0.090909  0.181818 -0.272727    0.00075131  39 t-inv F
  0.272727  0.454545  0.363636    0.00075131  39 t-inv F
 -0.454545 -0.090909 -0.181818    0.00075131  39 t-inv F
 -0.181818 -0.454545 -0.090909    0.00075131  39 t-inv F
 -0.090909 -0.181818 -0.454545    0.00075131  39 t-inv F
  0.090909 -0.454545  0.181818    0.00075131  40 t-inv F
  0.181818  0.090909 -0.454545    0.00075131  40 t-inv F
 -0.181818 -0.090909 -0.636364    0.00075131  40 t-inv F
  0.454545  0.636364  0.545455    0.00075131  40 t-inv F
 -0.090909 -0.545455  0.090909    0.00075131  40 t-inv F
  0.090909 -0.545455 -0.090909    0.00075131  40 t-inv F
 -0.636364 -0.090909 -0.181818    0.00075131  40 t-inv F
  0.545455  0.636364  0.454545    0.00075131  40 t-inv F
  0.545455  0.454545  0.636364    0.00075131  40 t-inv F
  0.090909 -0.090909 -0.545455    0.00075131  40 t-inv F
 -0.636364 -0.181818 -0.090909    0.00075131  40 t-inv F
 -0.090909  0.090909 -0.545455    0.00075131  40 t-inv F
 -0.181818 -0.636364 -0.090909    0.00075131  40 t-inv F
  0.454545  0.545455  0.636364    0.00075131  40 t-inv F
  0.636364  0.545455  0.454545    0.00075131  40 t-inv F
 -0.545455  0.090909 -0.090909    0.00075131  40 t-inv F
 -0.090909 -0.636364 -0.181818    0.00075131  40 t-inv F
 -0.545455 -0.090909  0.090909    0.00075131  40 t-inv F
 -0.090909 -0.181818 -0.636364    0.00075131  40 t-inv F
  0.636364  0.454545  0.545455    0.00075131  40 t-inv F
 -0.454545  0.090909  0.181818    0.00075131  40 t-inv F
  0.181818 -0.454545  0.090909    0.00075131  40 t-inv F
  0.090909  0.181818 -0.454545    0.00075131  40 t-inv F
  0.454545 -0.181818 -0.090909    0.00075131  40 t-inv F
 -0.090909  0.454545 -0.181818    0.00075131  40 t-inv F
 -0.181818 -0.090909  0.454545    0.00075131  40 t-inv F
  0.181818  0.090909  0.636364    0.00075131  40 t-inv F
 -0.454545 -0.636364 -0.545455    0.00075131  40 t-inv F
  0.090909  0.545455 -0.090909    0.00075131  40 t-inv F
 -0.090909  0.545455  0.090909    0.00075131  40 t-inv F
  0.636364  0.090909  0.181818    0.00075131  40 t-inv F
 -0.545455 -0.636364 -0.454545    0.00075131  40 t-inv F
 -0.545455 -0.454545 -0.636364    0.00075131  40 t-inv F
 -0.090909  0.090909  0.545455    0.00075131  40 t-inv F
  0.636364  0.181818  0.090909    0.00075131  40 t-inv F
  0.090909 -0.090909  0.545455    0.00075131  40 t-inv F
  0.181818  0.636364  0.090909    0.00075131  40 t-inv F
 -0.454545 -0.545455 -0.636364    0.00075131  40 t-inv F
 -0.636364 -0.545455 -0.454545    0.00075131  40 t-inv F
  0.545455 -0.090909  0.090909    0.00075131  40 t-inv F
  0.090909  0.636364  0.181818    0.00075131  40 t-inv F
  0.545455  0.090909 -0.090909    0.00075131  40 t-inv F
  0.090909  0.181818  0.636364    0.00075131  40 t-inv F
 -0.636364 -0.454545 -0.545455    0.00075131  40 t-inv F
  0.454545 -0.090909 -0.181818    0.00075131  40 t-inv F
 -0.181818  0.454545 -0.090909    0.00075131  40 t-inv F
 -0.090909 -0.181818  0.454545    0.00075131  40 t-inv F
  0.090909  0.363636  0.272727    0.00075131  41 t-inv F
  0.272727  0.090909  0.363636    0.00075131  41 t-inv F
 -0.272727 -0.181818  0.090909    0.00075131  41 t-inv F
 -0.363636 -0.090909 -0.272727    0.00075131  41 t-inv F
 -0.090909  0.272727  0.181818    0.00075131  41 t-inv F
  0.181818  0.272727 -0.090909    0.00075131  41 t-inv F
  0.090909 -0.181818 -0.272727    0.00075131  41 t-inv F
 -0.272727 -0.090909 -0.363636    0.00075131  41 t-inv F
 -0.272727 -0.363636 -0.090909    0.00075131  41 t-inv F
  0.181818 -0.090909  0.272727    0.00075131  41 t-inv F
  0.090909 -0.272727 -0.181818    0.00075131  41 t-inv F
 -0.090909  0.181818  0.272727    0.00075131  41 t-inv F
 -0.272727  0.090909 -0.181818    0.00075131  41 t-inv F
 -0.363636 -0.272727 -0.090909    0.00075131  41 t-inv F
 -0.090909 -0.272727 -0.363636    0.00075131  41 t-inv F
  0.272727  0.181818 -0.090909    0.00075131  41 t-inv F
 -0.181818  0.090909 -0.272727    0.00075131  41 t-inv F
  0.272727 -0.090909  0.181818    0.00075131  41 t-inv F
 -0.181818 -0.272727  0.090909    0.00075131  41 t-inv F
 -0.090909 -0.363636 -0.272727    0.00075131  41 t-inv F
  0.363636  0.090909  0.272727    0.00075131  41 t-inv F
  0.272727  0.363636  0.090909    0.00075131  41 t-inv F
  0.090909  0.272727  0.363636    0.00075131  41 t-inv F
  0.090909  0.454545  0.272727    0.00075131  42 t-inv F
  0.272727  0.090909  0.454545    0.00075131  42 t-inv F
 -0.272727 -0.181818  0.181818    0.00075131  42 t-inv F
 -0.454545 -0.181818 -0.363636    0.00075131  42 t-inv F
 -0.090909  0.363636  0.181818    0.00075131  42 t-inv F
  0.181818  0.363636 -0.090909    0.00075131  42 t-inv F
  0.181818 -0.181818 -0.272727    0.00075131  42 t-inv F
 -0.363636 -0.181818 -0.454545    0.00075131  42 t-inv F
 -0.363636 -0.454545 -0.181818    0.00075131  42 t-inv F
  0.181818 -0.090909  0.363636    0.00075131  42 t-inv F
  0.181818 -0.272727 -0.181818    0.00075131  42 t-inv F
 -0.090909  0.181818  0.363636    0.00075131  42 t-inv F
 -0.272727  0.181818 -0.181818    0.00075131  42 t-inv F
 -0.454545 -0.363636 -0.181818    0.00075131  42 t-inv F
 -0.181818 -0.363636 -0.454545    0.00075131  42 t-inv F
  0.363636  0.181818 -0.090909    0.00075131  42 t-inv F
 -0.181818  0.181818 -0.272727    0.00075131  42 t-inv F
  0.363636 -0.090909  0.181818    0.00075131  42 t-inv F
 -0.181818 -0.272727  0.181818    0.00075131  42 t-inv F
 -0.181818 -0.454545 -0.363636    0.00075131  42 t-inv F
  0.454545  0.090909  0.272727    0.00075131  42 t-inv F
  0.272727  0.454545  0.090909    0.00075131  42 t-inv F
  0.090909  0.272727  0.454545    0.00075131  42 t-inv F
 -0.454545 -0.272727 -0.090909    0.00075131  42 t-inv F
 -0.090909 -0.454545 -0.272727    0.00075131  42 t-inv F
 -0.272727 -0.090909 -0.454545    0.00075131  42 t-inv F
  0.272727  0.181818 -0.181818    0.00075131  42 t-inv F
  0.454545  0.181818  0.363636    0.00075131  42 t-inv F
  0.090909 -0.363636 -0.181818    0.00075131  42 t-inv F
 -0.181818 -0.363636  0.090909    0.00075131  42 t-inv F
 -0.181818  0.181818  0.272727    0.00075131  42 t-inv F
  0.363636  0.181818  0.454545    0.00075131  42 t-inv F
  0.363636  0.454545  0.181818    0.00075131  42 t-inv F
 -0.181818  0.090909 -0.363636    0.00075131  42 t-inv F
 -0.181818  0.272727  0.181818    0.00075131  42 t-inv F
  0.090909 -0.181818 -0.363636    0.00075131  42 t-inv F
  0.272727 -0.181818  0.181818    0.00075131  42 t-inv F
  0.454545  0.363636  0.181818    0.00075131  42 t-inv F
  0.181818  0.363636  0.454545    0.00075131  42 t-inv F
 -0.363636 -0.181818  0.090909    0.00075131  42 t-inv F
  0.181818 -0.181818  0.272727    0.00075131  42 t-inv F
 -0.363636  0.090909 -0.181818    0.00075131  42 t-inv F
  0.181818  0.272727 -0.181818    0.00075131  42 t-inv F
  0.181818  0.454545  0.363636    0.00075131  42 t-inv F
 -0.454545 -0.090909 -0.272727    0.00075131  42 t-inv F
 -0.272727 -0.454545 -0.090909    0.00075131  42 t-inv F
 -0.090909 -0.272727 -0.454545    0.00075131  42 t-inv F
  0.090909 -0.454545  0.272727    0.00075131  43 t-inv F
  0.272727  0.090909 -0.454545    0.00075131  43 t-inv F
 -0.272727 -0.181818 -0.727273    0.00075131  43 t-inv F
  0.454545  0.727273  0.545455    0.00075131  43 t-inv F
 -0.090909 -0.545455  0.181818    0.00075131  43 t-inv F
  0.181818 -0.545455 -0.090909    0.00075131  43 t-inv F
 -0.727273 -0.181818 -0.272727    0.00075131  43 t-inv F
  0.545455  0.727273  0.454545    0.00075131  43 t-inv F
  0.545455  0.454545  0.727273    0.00075131  43 t-inv F
  0.181818 -0.090909 -0.545455    0.00075131  43 t-inv F
 -0.727273 -0.272727 -0.181818    0.00075131  43 t-inv F
 -0.090909  0.181818 -0.545455    0.00075131  43 t-inv F
 -0.272727 -0.727273 -0.181818    0.00075131  43 t-inv F
  0.454545  0.545455  0.727273    0.00075131  43 t-inv F
  0.727273  0.545455  0.454545    0.00075131  43 t-inv F
 -0.545455  0.181818 -0.090909    0.00075131  43 t-inv F
 -0.181818 -0.727273 -0.272727    0.00075131  43 t-inv F
 -0.545455 -0.090909  0.181818    0.00075131  43 t-inv F
 -0.181818 -0.272727 -0.727273    0.00075131  43 t-inv F
  0.727273  0.454545  0.545455    0.00075131  43 t-inv F
 -0.454545  0.090909  0.272727    0.00075131  43 t-inv F
  0.272727 -0.454545  0.090909    0.00075131  43 t-inv F
  0.090909  0.272727 -0.454545    0.00075131  43 t-inv F
  0.454545 -0.272727 -0.090909    0.00075131  43 t-inv F
 -0.090909  0.454545 -0.272727    0.00075131  43 t-inv F
 -0.272727 -0.090909  0.454545    0.00075131  43 t-inv F
  0.272727  0.181818  0.727273    0.00075131  43 t-inv F
 -0.454545 -0.727273 -0.545455    0.00075131  43 t-inv F
  0.090909  0.545455 -0.181818    0.00075131  43 t-inv F
 -0.181818  0.545455  0.090909    0.00075131  43 t-inv F
  0.727273  0.181818  0.272727    0.00075131  43 t-inv F
 -0.545455 -0.727273 -0.454545    0.00075131  43 t-inv F
 -0.545455 -0.454545 -0.727273    0.00075131  43 t-inv F
 -0.181818  0.090909  0.545455    0.00075131  43 t-inv F
  0.727273  0.272727  0.181818    0.00075131  43 t-inv F
  0.090909 -0.181818  0.545455    0.00075131  43 t-inv F
  0.272727  0.727273  0.181818    0.00075131  43 t-inv F
 -0.454545 -0.545455 -0.727273    0.00075131  43 t-inv F
 -0.727273 -0.545455 -0.454545    0.00075131  43 t-inv F
  0.545455 -0.181818  0.090909    0.00075131  43 t-inv F
  0.181818  0.727273  0.272727    0.00075131  43 t-inv F
  0.545455  0.090909 -0.181818    0.00075131  43 t-inv F
  0.181818  0.272727  0.727273    0.00075131  43 t-inv F
 -0.727273 -0.454545 -0.545455    0.00075131  43 t-inv F
  0.454545 -0.090909 -0.272727    0.00075131  43 t-inv F
 -0.272727  0.454545 -0.090909    0.00075131  43 t-inv F
 -0.090909 -0.272727  0.454545    0.00075131  43 t-inv F
  0.090909 -0.363636  0.272727    0.00075131  44 t-inv F
  0.272727  0.090909 -0.363636    0.00075131  44 t-inv F
 -0.272727 -0.181818 -0.636364    0.00075131  44 t-inv F
  0.363636  0.636364  0.454545    0.00075131  44 t-inv F
 -0.090909 -0.454545  0.181818    0.00075131  44 t-inv F
  0.181818 -0.454545 -0.090909    0.00075131  44 t-inv F
 -0.636364 -0.181818 -0.272727    0.00075131  44 t-inv F
  0.454545  0.636364  0.363636    0.00075131  44 t-inv F
  0.454545  0.363636  0.636364    0.00075131  44 t-inv F
  0.181818 -0.090909 -0.454545    0.00075131  44 t-inv F
 -0.636364 -0.272727 -0.181818    0.00075131  44 t-inv F
 -0.090909  0.181818 -0.454545    0.00075131  44 t-inv F
 -0.272727 -0.636364 -0.181818    0.00075131  44 t-inv F
  0.363636  0.454545  0.636364    0.00075131  44 t-inv F
  0.636364  0.454545  0.363636    0.00075131  44 t-inv F
 -0.454545  0.181818 -0.090909    0.00075131  44 t-inv F
 -0.181818 -0.636364 -0.272727    0.00075131  44 t-inv F
 -0.454545 -0.090909  0.181818    0.00075131  44 t-inv F
 -0.181818 -0.272727 -0.636364    0.00075131  44 t-inv F
  0.636364  0.363636  0.454545    0.00075131  44 t-inv F
 -0.363636  0.090909  0.272727    0.00075131  44 t-inv F
  0.272727 -0.363636  0.090909    0.00075131  44 t-inv F
  0.090909  0.272727 -0.363636    0.00075131  44 t-inv F
  0.363636 -0.272727 -0.090909    0.00075131  44 t-inv F
 -0.090909  0.363636 -0.272727    0.00075131  44 t-inv F
 -0.272727 -0.090909  0.363636    0.00075131  44 t-inv F
  0.272727  0.181818  0.636364    0.00075131  44 t-inv F
 -0.363636 -0.636364 -0.454545    0.00075131  44 t-inv F
  0.090909  0.454545 -0.181818    0.00075131  44 t-inv F
 -0.181818  0.454545  0.090909    0.00075131  44 t-inv F
  0.636364  0.181818  0.272727    0.00075131  44 t-inv F
 -0.454545 -0.636364 -0.363636    0.00075131  44 t-inv F
 -0.454545 -0.363636 -0.636364    0.00075131  44 t-inv F
 -0.181818  0.090909  0.454545    0.00075131  44 t-inv F
  0.636364  0.272727  0.181818    0.00075131  44 t-inv F
  0.090909 -0.181818  0.454545    0.00075131  44 t-inv F
  0.272727  0.636364  0.181818    0.00075131  44 t-inv F
 -0.363636 -0.454545 -0.636364    0.00075131  44 t-inv F
 -0.636364 -0.454545 -0.363636    0.00075131  44 t-inv F
  0.454545 -0.181818  0.090909    0.00075131  44 t-inv F
  0.181818  0.636364  0.272727    0.00075131  44 t-inv F
  0.454545  0.090909 -0.181818    0.00075131  44 t-inv F
  0.181818  0.272727  0.636364    0.00075131  44 t-inv F
 -0.636364 -0.363636 -0.454545    0.00075131  44 t-inv F
  0.363636 -0.090909 -0.272727    0.00075131  44 t-inv F
 -0.272727  0.363636 -0.090909    0.00075131  44 t-inv F
 -0.090909 -0.272727  0.363636    0.00075131  44 t-inv F
  0.090909 -0.272727  0.272727    0.00075131  45 t-inv F
  0.272727  0.090909 -0.272727    0.00075131  45 t-inv F
 -0.272727 -0.181818 -0.545455    0.00075131  45 t-inv F
  0.272727  0.545455  0.363636    0.00075131  45 t-inv F
 -0.090909 -0.363636  0.181818    0.00075131  45 t-inv F
  0.181818 -0.363636 -0.090909    0.00075131  45 t-inv F
 -0.545455 -0.181818 -0.272727    0.00075131  45 t-inv F
  0.363636  0.545455  0.272727    0.00075131  45 t-inv F
  0.363636  0.272727  0.545455    0.00075131  45 t-inv F
  0.181818 -0.090909 -0.363636    0.00075131  45 t-inv F
 -0.545455 -0.272727 -0.181818    0.00075131  45 t-inv F
 -0.090909  0.181818 -0.363636    0.00075131  45 t-inv F
 -0.272727 -0.545455 -0.181818    0.00075131  45 t-inv F
  0.272727  0.363636  0.545455    0.00075131  45 t-inv F
  0.545455  0.363636  0.272727    0.00075131  45 t-inv F
 -0.363636  0.181818 -0.090909    0.00075131  45 t-inv F
 -0.181818 -0.545455 -0.272727    0.00075131  45 t-inv F
 -0.363636 -0.090909  0.181818    0.00075131  45 t-inv F
 -0.181818 -0.272727 -0.545455    0.00075131  45 t-inv F
  0.545455  0.272727  0.363636    0.00075131  45 t-inv F
 -0.272727  0.090909  0.272727    0.00075131  45 t-inv F
  0.272727 -0.272727  0.090909    0.00075131  45 t-inv F
  0.090909  0.272727 -0.272727    0.00075131  45 t-inv F
  0.272727 -0.272727 -0.090909    0.00075131  45 t-inv F
 -0.090909  0.272727 -0.272727    0.00075131  45 t-inv F
 -0.272727 -0.090909  0.272727    0.00075131  45 t-inv F
  0.272727  0.181818  0.545455    0.00075131  45 t-inv F
 -0.272727 -0.545455 -0.363636    0.00075131  45 t-inv F
  0.090909  0.363636 -0.181818    0.00075131  45 t-inv F
 -0.181818  0.363636  0.090909    0.00075131  45 t-inv F
  0.545455  0.181818  0.272727    0.00075131  45 t-inv F
 -0.363636 -0.545455 -0.272727    0.00075131  45 t-inv F
 -0.363636 -0.272727 -0.545455    0.00075131  45 t-inv F
 -0.181818  0.090909  0.363636    0.00075131  45 t-inv F
  0.545455  0.272727  0.181818    0.00075131  45 t-inv F
  0.090909 -0.181818  0.363636    0.00075131  45 t-inv F
  0.272727  0.545455  0.181818    0.00075131  45 t-inv F
 -0.272727 -0.363636 -0.545455    0.00075131  45 t-inv F
 -0.545455 -0.363636 -0.272727    0.00075131  45 t-inv F
  0.363636 -0.181818  0.090909    0.00075131  45 t-inv F
  0.181818  0.545455  0.272727    0.00075131  45 t-inv F
  0.363636  0.090909 -0.181818    0.00075131  45 t-inv F
  0.181818  0.272727  0.545455    0.00075131  45 t-inv F
 -0.545455 -0.272727 -0.363636    0.00075131  45 t-inv F
  0.272727 -0.090909 -0.272727    0.00075131  45 t-inv F
 -0.272727  0.272727 -0.090909    0.00075131  45 t-inv F
 -0.090909 -0.272727  0.272727    0.00075131  45 t-inv F
  0.090909 -0.181818  0.272727    0.00075131  46 t-inv F
  0.272727  0.090909 -0.181818    0.00075131  46 t-inv F
 -0.272727 -0.181818 -0.454545    0.00075131  46 t-inv F
  0.181818  0.454545  0.272727    0.00075131  46 t-inv F
 -0.090909 -0.272727  0.181818    0.00075131  46 t-inv F
  0.181818 -0.272727 -0.090909    0.00075131  46 t-inv F
 -0.454545 -0.181818 -0.272727    0.00075131  46 t-inv F
  0.272727  0.454545  0.181818    0.00075131  46 t-inv F
  0.272727  0.181818  0.454545    0.00075131  46 t-inv F
  0.181818 -0.090909 -0.272727    0.00075131  46 t-inv F
 -0.454545 -0.272727 -0.181818    0.00075131  46 t-inv F
 -0.090909  0.181818 -0.272727    0.00075131  46 t-inv F
 -0.272727 -0.454545 -0.181818    0.00075131  46 t-inv F
  0.181818  0.272727  0.454545    0.00075131  46 t-inv F
  0.454545  0.272727  0.181818    0.00075131  46 t-inv F
 -0.272727  0.181818 -0.090909    0.00075131  46 t-inv F
 -0.181818 -0.454545 -0.272727    0.00075131  46 t-inv F
 -0.272727 -0.090909  0.181818    0.00075131  46 t-inv F
 -0.181818 -0.272727 -0.454545    0.00075131  46 t-inv F
  0.454545  0.181818  0.272727    0.00075131  46 t-inv F
 -0.181818  0.090909  0.272727    0.00075131  46 t-inv F
  0.272727 -0.181818  0.090909    0.00075131  46 t-inv F
  0.090909  0.272727 -0.181818    0.00075131  46 t-inv F
  0.090909  0.454545  0.363636    0.00075131  47 t-inv F
  0.363636  0.090909  0.454545    0.00075131  47 t-inv F
 -0.363636 -0.272727  0.090909    0.00075131  47 t-inv F
 -0.454545 -0.090909 -0.363636    0.00075131  47 t-inv F
 -0.090909  0.363636  0.272727    0.00075131  47 t-inv F
  0.272727  0.363636 -0.090909    0.00075131  47 t-inv F
  0.090909 -0.272727 -0.363636    0.00075131  47 t-inv F
 -0.363636 -0.090909 -0.454545    0.00075131  47 t-inv F
 -0.363636 -0.454545 -0.090909    0.00075131  47 t-inv F
  0.272727 -0.090909  0.363636    0.00075131  47 t-inv F
[...]
      7      11.2948      0.00000
      8      11.6307      0.00000

 k-point    19 :       0.3636    0.1818    0.0000
  band No.  band energies     occupation 
      1      -6.1053      2.00000
      2       0.1657      2.00000
      3       3.0511      2.00000
      4       3.4597      2.00000
      5       8.0400      0.00000
      6      10.4000      0.00000
      7      11.0803      0.00000
      8      11.6986      0.00000

 k-point    20 :       0.4545    0.1818    0.0000
  band No.  band energies     occupation 
      1      -5.3433      2.00000
      2      -1.2356      2.00000
      3       2.5206      2.00000
      4       3.4194      2.00000
      5       8.0920      0.00000
      6      10.8186      0.00000
      7      11.4107      0.00000
      8      11.7259      0.00000

 k-point    21 :      -0.4545    0.1818    0.0000
  band No.  band energies     occupation 
      1      -4.7999      2.00000
      2      -2.0399      2.00000
      3       2.1431      2.00000
      4       3.5627      2.00000
      5       8.2108      0.00000
      6      10.6741      0.00000
      7      11.0966      0.00000
      8      13.4721      0.00000

 k-point    22 :      -0.3636    0.1818    0.0000
  band No.  band energies     occupation 
      1      -5.1209      2.00000
      2      -1.5739      2.00000
      3       1.9699      2.00000
      4       3.8710      2.00000
      5       8.4981      0.00000
      6      10.6472      0.00000
      7      10.8697      0.00000
      8      14.3611      0.00000

 k-point    23 :      -0.2727    0.1818    0.0000
  band No.  band energies     occupation 
      1      -5.8746      2.00000
      2      -0.3095      2.00000
      3       2.0611      2.00000
      4       4.3002      2.00000
      5       8.9184      0.00000
      6      10.6402      0.00000
      7      10.6761      0.00000
      8      12.8911      0.00000

 k-point    24 :      -0.1818    0.1818    0.0000
  band No.  band energies     occupation 
      1      -6.5639      2.00000
      2       1.0367      2.00000
      3       2.6026      2.00000
      4       4.7553      2.00000
      5       9.3107      0.00000
      6      10.1253      0.00000
      7      10.3251      0.00000
      8      12.1571      0.00000

 k-point    25 :       0.2727    0.2727    0.0000
  band No.  band energies     occupation 
      1      -6.3848      2.00000
      2       1.2045      2.00000
      3       3.2595      2.00000
      4       3.2595      2.00000
      5       7.0956      0.00000
      6       9.0213      0.00000
      7      12.7044      0.00000
      8      12.7044      0.00000

 k-point    26 :       0.3636    0.2727    0.0000
  band No.  band energies     occupation 
      1      -5.8110      2.00000
      2       0.1225      2.00000
      3       2.6801      2.00000
      4       2.9968      2.00000
      5       7.2282      0.00000
      6       8.7046      0.00000
      7      13.0216      0.00000
      8      13.1936      0.00000

 k-point    27 :       0.4545    0.2727    0.0000
  band No.  band energies     occupation 
      1      -5.0719      2.00000
      2      -1.0432      2.00000
      3       1.8845      2.00000
      4       2.9254      2.00000
      5       7.4464      0.00000
      6       9.5135      0.00000
      7      12.8523      0.00000
      8      13.0236      0.00000

 k-point    28 :      -0.4545    0.2727    0.0000
  band No.  band energies     occupation 
      1      -4.3804      2.00000
      2      -1.9515      2.00000
      3       1.2448      2.00000
      4       3.0500      2.00000
      5       7.5966      0.00000
      6      11.0893      0.00000
      7      12.6681      0.00000
      8      12.6894      0.00000

 k-point    29 :      -0.3636    0.2727    0.0000
  band No.  band energies     occupation 
      1      -4.4425      2.00000
      2      -1.8623      2.00000
      3       0.9235      2.00000
      4       3.3564      2.00000
      5       7.9167      0.00000
      6      12.2169      0.00000
      7      12.3157      0.00000
      8      13.3411      0.00000

 k-point    30 :      -0.2727    0.2727    0.0000
  band No.  band energies     occupation 
      1      -5.1562      2.00000
      2      -1.0034      2.00000
      3       1.1053      2.00000
      4       3.8045      2.00000
      5       8.4112      0.00000
      6      11.7104      0.00000
      7      11.9293      0.00000
      8      13.0100      0.00000

 k-point    31 :       0.3636    0.3636    0.0000
  band No.  band energies     occupation 
      1      -5.3006      2.00000
      2      -0.6256      2.00000
      3       2.6864      2.00000
      4       2.6864      2.00000
      5       6.7052      0.00000
      6       7.7942      0.00000
      7      14.5033      0.00000
      8      14.5033      0.00000

 k-point    32 :       0.4545    0.3636    0.0000
  band No.  band energies     occupation 
      1      -4.6032      2.00000
      2      -1.5467      2.00000
      3       2.1109      2.00000
      4       2.5667      2.00000
      5       6.9244      0.00000
      6       7.8052      0.00000
      7      14.8321      0.00000
      8      14.8569      0.00000

 k-point    33 :      -0.4545    0.3636    0.0000
  band No.  band energies     occupation 
      1      -3.8442      2.00000
      2      -2.3559      2.00000
      3       1.2559      2.00000
      4       2.6480      2.00000
      5       7.1108      0.00000
      6       9.0827      0.00000
      7      14.5229      0.00000
      8      14.7036      0.00000

 k-point    34 :      -0.3636    0.3636    0.0000
  band No.  band energies     occupation 
      1      -3.7686      2.00000
      2      -2.3937      2.00000
      3       0.7138      2.00000
      4       2.9220      2.00000
      5       7.4145      0.00000
      6      10.9345      0.00000
      7      13.8438      0.00000
      8      14.3721      0.00000

 k-point    35 :       0.4545    0.4545    0.0000
  band No.  band energies     occupation 
      1      -3.9482      2.00000
      2      -2.3695      2.00000
      3       2.3930      2.00000
      4       2.3930      2.00000
      5       6.6583      0.00000
      6       7.0081      0.00000
      7      16.3409      0.00000
      8      16.3409      0.00000

 k-point    36 :      -0.4545    0.4545    0.0000
  band No.  band energies     occupation 
      1      -3.2209      2.00000
      2      -3.0957      2.00000
      3       1.9238      2.00000
      4       2.4210      2.00000
      5       6.8531      0.00000
      6       7.4702      0.00000
      7      16.3017      0.00000
      8      16.6066      0.00000

 k-point    37 :       0.2727    0.1818    0.0909
  band No.  band energies     occupation 
      1      -7.0206      2.00000
      2       2.2131      2.00000
      3       3.5342      2.00000
      4       4.6232      2.00000
      5       8.5355      0.00000
      6      10.0150      0.00000
      7      10.7599      0.00000
      8      11.1331      0.00000

 k-point    38 :       0.3636    0.1818    0.0909
  band No.  band energies     occupation 
      1      -6.4483      2.00000
      2       0.7255      2.00000
      3       2.9132      2.00000
      4       4.2705      2.00000
      5       8.8755      0.00000
      6       9.9301      0.00000
      7      11.0877      0.00000
      8      11.2730      0.00000

 k-point    39 :       0.4545    0.1818    0.0909
  band No.  band energies     occupation 
      1      -5.7116      2.00000
      2      -0.7939      2.00000
      3       2.6284      2.00000
      4       3.8865      2.00000
      5       8.9342      0.00000
      6       9.6389      0.00000
      7      11.2236      0.00000
      8      12.1806      0.00000

 k-point    40 :      -0.4545    0.1818    0.0909
  band No.  band energies     occupation 
      1      -5.0211      2.00000
      2      -1.9053      2.00000
      3       2.5190      2.00000
      4       3.6489      2.00000
      5       8.9321      0.00000
      6       9.3803      0.00000
      7      11.1406      0.00000
      8      13.7748      0.00000

 k-point    41 :       0.3636    0.2727    0.0909
  band No.  band energies     occupation 
      1      -6.2416      2.00000
      2       0.7654      2.00000
      3       2.7301      2.00000
      4       3.5111      2.00000
      5       7.9146      0.00000
      6       9.5653      0.00000
      7      11.4317      0.00000
      8      12.5686      0.00000

 k-point    42 :       0.4545    0.2727    0.0909
  band No.  band energies     occupation 
      1      -5.5504      2.00000
      2      -0.4567      2.00000
      3       2.0971      2.00000
      4       3.1632      2.00000
      5       8.3050      0.00000
      6       9.9923      0.00000
      7      11.0995      0.00000
      8      12.9807      0.00000

 k-point    43 :      -0.4545    0.2727    0.0909
  band No.  band energies     occupation 
      1      -4.7945      2.00000
      2      -1.5998      2.00000
      3       1.6697      2.00000
      4       2.9884      2.00000
      5       8.4508      0.00000
      6      10.5977      0.00000
      7      11.5362      0.00000
      8      12.9316      0.00000

 k-point    44 :      -0.3636    0.2727    0.0909
  band No.  band energies     occupation 
      1      -4.4934      2.00000
      2      -1.9961      2.00000
      3       1.4113      2.00000
      4       3.0884      2.00000
      5       8.6851      0.00000
      6      10.3329      0.00000
      7      12.7761      0.00000
      8      13.3297      0.00000

 k-point    45 :      -0.2727    0.2727    0.0909
  band No.  band energies     occupation 
      1      -5.0635      2.00000
      2      -1.2150      2.00000
      3       1.3982      2.00000
      4       3.4181      2.00000
      5       9.0867      0.00000
      6      10.1290      0.00000
      7      12.0178      0.00000
      8      12.6893      0.00000

 k-point    46 :      -0.1818    0.2727    0.0909
  band No.  band energies     occupation 
      1      -5.8212      2.00000
      2      -0.1048      2.00000
      3       1.8220      2.00000
      4       3.8773      2.00000
      5       9.5882      0.00000
      6       9.6839      0.00000
      7      11.0228      0.00000
      8      12.2274      0.00000

 k-point    47 :       0.4545    0.3636    0.0909
  band No.  band energies     occupation 
      1      -5.1777      2.00000
      2      -0.7808      2.00000
      3       2.1911      2.00000
      4       2.6149      2.00000
      5       7.5220      0.00000
      6       8.4372      0.00000
      7      12.9245      0.00000
      8      14.4615      0.00000

 k-point    48 :      -0.4545    0.3636    0.0909
  band No.  band energies     occupation 
      1      -4.4131      2.00000
      2      -1.7104      2.00000
      3       1.4825      2.00000
      4       2.4199      2.00000
      5       7.8944      0.00000
      6       9.3154      0.00000
      7      12.5378      0.00000
      8      14.8522      0.00000

 k-point    49 :      -0.3636    0.3636    0.0909
  band No.  band energies     occupation 
      1      -3.8830      2.00000
      2      -2.2751      2.00000
      3       0.8992      2.00000
      4       2.5511      2.00000
      5       8.1279      0.00000
      6      10.9888      0.00000
      7      12.2319      0.00000
      8      13.9384      0.00000

 k-point    50 :      -0.2727    0.3636    0.0909
  band No.  band energies     occupation 
      1      -4.3176      2.00000
      2      -1.8230      2.00000
      3       0.7826      2.00000
      4       2.9122      2.00000
      5       8.5348      0.00000
      6      11.4762      0.00000
      7      12.2953      0.00000
      8      13.2476      0.00000

 k-point    51 :      -0.4545    0.4545    0.0909
  band No.  band energies     occupation 
      1      -3.8647      2.00000
      2      -2.3654      2.00000
      3       1.9704      2.00000
      4       2.1014      2.00000
      5       7.4441      0.00000
      6       7.7347      0.00000
      7      14.5679      0.00000
      8      16.2072      0.00000

 k-point    52 :      -0.3636    0.4545    0.0909
  band No.  band energies     occupation 
      1      -3.2937      2.00000
      2      -2.8698      2.00000
      3       1.2453      2.00000
      4       2.1854      2.00000
      5       7.7486      0.00000
      6       9.0947      0.00000
      7      14.0805      0.00000
      8      14.3118      0.00000

 k-point    53 :      -0.4545    0.3636    0.1818
  band No.  band energies     occupation 
      1      -4.8280      2.00000
      2      -1.2271      2.00000
      3       1.3582      2.00000
      4       2.6560      2.00000
      5       9.3218      0.00000
      6       9.9501      0.00000
      7      10.7262      0.00000
      8      14.3246      0.00000

 k-point    54 :      -0.3636    0.3636    0.1818
  band No.  band energies     occupation 
      1      -4.1133      2.00000
      2      -2.0192      2.00000
      3       1.0434      2.00000
      4       2.3010      2.00000
      5       9.6827      0.00000
      6      10.1319      0.00000
      7      11.5176      0.00000
      8      13.5322      0.00000

 k-point    55 :      -0.3636    0.4545    0.1818
  band No.  band energies     occupation 
      1      -3.6533      2.00000
      2      -2.4128      2.00000
      3       1.2980      2.00000
      4       1.7226      2.00000
      5       9.2208      0.00000
      6       9.4315      0.00000
      7      12.0950      0.00000
      8      13.7949      0.00000

 k-point    56 :      -0.2727    0.4545    0.1818
  band No.  band energies     occupation 
      1      -3.4267      2.00000
      2      -2.5990      2.00000
      3       0.9852      2.00000
      4       1.7653      2.00000
      5       9.5848      0.00000
      6      10.9217      0.00000
      7      11.8464      0.00000
      8      11.9084      0.00000


--------------------------------------------------------------------------------------------------------


 soft charge-density along one line, spin component           1
         0         1         2         3         4         5         6         7         8         9
 total charge-density along one line
 
 pseudopotential strength for first ion, spin component:           1
 17.852  24.909   0.000   0.000   0.000   0.000   0.000   0.000
 24.909  34.758   0.000   0.000   0.000   0.000   0.000   0.000
  0.000   0.000   4.076  -0.000  -0.000   7.599  -0.000  -0.000
  0.000   0.000  -0.000   4.076  -0.000  -0.000   7.599  -0.000
  0.000   0.000  -0.000  -0.000   4.076  -0.000  -0.000   7.599
  0.000   0.000   7.599  -0.000  -0.000  14.175  -0.000  -0.000
  0.000   0.000  -0.000   7.599  -0.000  -0.000  14.175  -0.000
  0.000   0.000  -0.000  -0.000   7.599  -0.000  -0.000  14.175
 total augmentation occupancy for first ion, spin component:           1
 11.004  -5.163   0.000  -0.000   0.000  -0.000   0.000  -0.000
 -5.163   2.474  -0.000   0.000  -0.000   0.000  -0.000   0.000
  0.000  -0.000   3.939   0.000   0.000  -1.050  -0.000  -0.000
 -0.000   0.000   0.000   3.939   0.000  -0.000  -1.050   0.000
  0.000  -0.000   0.000   0.000   3.939   0.000  -0.000  -1.050
 -0.000   0.000  -1.050  -0.000   0.000   0.286   0.000   0.000
  0.000  -0.000  -0.000  -1.050  -0.000   0.000   0.286   0.000
 -0.000   0.000  -0.000   0.000  -1.050   0.000   0.000   0.286


------------------------ aborting loop because EDIFF is reached ----------------------------------------


 


 total charge     
 
# of ion     s       p       d       tot
----------------------------------------
  1        0.760   0.965   0.000   1.725
  2        0.760   0.965   0.000   1.725
------------------------------------------------
tot        1.521   1.930   0.000   3.450
 
    FORLOC:  cpu time    0.0007: real time    0.0007
    FORHF :  cpu time   23.5389: real time   23.5422
    FORNL :  cpu time    0.1160: real time    0.1160
    FORCOR:  cpu time    0.5803: real time    0.5803
    OFIELD:  cpu time    0.0001: real time    0.0001

 VOLUME and BASIS-vectors are now :
 -----------------------------------------------------------------------------
  energy-cutoff  :      500.00
  volume of cell :       39.94
      direct lattice vectors                 reciprocal lattice vectors
     2.713087246  2.713087246  0.000000000     0.184291899  0.184291899 -0.184291899
     0.000000000  2.713087246  2.713087246    -0.184291899  0.184291899  0.184291899
     2.713087246  0.000000000  2.713087246     0.184291899 -0.184291899  0.184291899

  length of vectors
     3.836884779  3.836884779  3.836884779     0.319202932  0.319202932  0.319202932


 FORCES acting on ions:
    Electron-Ion                     Ewald-Force                    Non-Local-Force
 -----------------------------------------------------------------------------------------------
   0.158E-06 0.316E-07 0.103E-06   0.547E-14 0.369E-14 0.846E-14   0.139E-16 0.694E-17 0.347E-16
   -.311E-07 -.348E-07 -.231E-06   -.569E-14 -.403E-14 -.824E-14   -.208E-16 0.173E-17 -.278E-16
 -----------------------------------------------------------------------------------------------
   0.482E-07 -.944E-07 -.207E-06   -.214E-15 -.339E-15 0.227E-15   -.694E-17 0.867E-17 0.694E-17
 
 
 POSITION                                       TOTAL-FORCE (eV/Angst)
 -----------------------------------------------------------------------------------
      0.00000      0.00000      0.00000        -0.000000     -0.000000     -0.000000
      1.35654      1.35654      1.35654         0.000000      0.000000      0.000000
 -----------------------------------------------------------------------------------
    total drift:                                0.000000     -0.000000     -0.000000


--------------------------------------------------------------------------------------------------------



  FREE ENERGIE OF THE ION-ELECTRON SYSTEM (eV)
  ---------------------------------------------------
  free  energy   TOTEN  =       -12.55622565 eV

  energy  without entropy=      -12.55622565  energy(sigma->0) =      -12.55622565
 


--------------------------------------------------------------------------------------------------------


    POTLOK:  cpu time    0.5788: real time    0.5788


--------------------------------------------------------------------------------------------------------


     LOOP+:  cpu time  139.9506: real time  140.1805
    4ORBIT:  cpu time    0.0000: real time    0.0000
 


 total charge     
 
# of ion     s       p       d       tot
----------------------------------------
  1        0.760   0.965   0.000   1.725
  2        0.760   0.965   0.000   1.725
------------------------------------------------
tot        1.521   1.930   0.000   3.450
 
 BZINTS: Fermi energy:  5.500005;  8.000000 electrons
         Band energy:  -0.756674;  BLOECHL correction:  0.000000

 total amount of memory used by VASP on root node    37312. kBytes
========================================================================

   base      :      30000. kBytes
   nonl-proj :       1345. kBytes
   fftplans  :       2613. kBytes
   grid      :       1088. kBytes
   one-center:          3. kBytes
   HF        :          4. kBytes
   nonlr-proj:        219. kBytes
   wavefun   :       2040. kBytes
 
  
  
 General timing and accounting informations for this job:
 ========================================================
  
                  Total CPU time used (sec):      279.797
                            User time (sec):      279.402
                          System time (sec):        0.396
                         Elapsed time (sec):      282.981
  
                   Maximum memory used (kb):      227056.
                   Average memory used (kb):           0.
  
                          Minor page faults:        26347
                          Major page faults:           11
                 Voluntary context switches:         3904
