<?xml version="1.0" encoding="ISO-8859-1"?>
<modeling>
 <generator>
  <i name="program" type="string">vasp </i>
  <i name="version" type="string">5.4.1  </i>
  <i name="subversion" type="string">05Feb16 (build Oct 05 2016 13:11:45) complex                          parallel </i>
  <i name="platform" type="string">GRP7IFC17NORMAL </i>
  <i name="date" type="string">2018 05 01 </i>
  <i name="time" type="string">21:05:30 </i>
 </generator>
 <incar>
  <i type="string" name="PREC">accurate</i>
  <i type="string" name="ALGO">A</i>
  <i type="logical" name="ADDGRID"> T  </i>
  <i type="int" name="IBRION">    -1</i>
  <i name="EDIFF">      0.00001000</i>
  <i type="int" name="NSW">     0</i>
  <i name="ENCUT">    500.00000000</i>
  <i type="int" name="NEDOS">  2001</i>
  <i type="logical" name="LREAL"> F  </i>
  <i name="TIME">      0.30000000</i>
  <i name="EMIN">    -20.00000000</i>
  <i name="EMAX">     20.00000000</i>
  <i type="int" name="ISMEAR">    -5</i>
  <i name="SIGMA">      0.01000000</i>
  <i name="KSPACING">      0.20000000</i>
  <i type="logical" name="KGAMMA"> T  </i>
  <i type="logical" name="LWAVE"> F  </i>
  <i type="logical" name="LCHARG"> F  </i>
  <i type="logical" name="LORBIT"> F  </i>
  <i type="logical" name="LASPH"> T  </i>
  <v type="int" name="KPOINT_BSE">    -1     0     0     0</v>
  <i type="logical" name="LHFCALC"> T  </i>
  <i type="int" name="LMAXFOCK">     4</i>
  <i name="HFSCREEN">      0.20700000</i>
  <i name="AEXX">      0.25000000</i>
  <i type="string" name="PRECFOCK">fast</i>
  <i type="logical" name="LASPH"> T  </i>
 </incar>
 <kpoints>
  <generation param="Gamma">
   <v type="int" name="divisions">      11       11       11 </v>
   <v name="usershift">      0.00000000       0.00000000       0.00000000 </v>
   <v name="genvec1">      0.09090909       0.00000000       0.00000000 </v>
   <v name="genvec2">      0.00000000       0.09090909       0.00000000 </v>
   <v name="genvec3">      0.00000000       0.00000000       0.09090909 </v>
   <v name="shift">      0.00000000       0.00000000       0.00000000 </v>
  </generation>
  <varray name="kpointlist" >
   <v>       0.00000000       0.00000000       0.00000000 </v>
   <v>       0.09090909       0.00000000       0.00000000 </v>
   <v>       0.18181818       0.00000000       0.00000000 </v>
   <v>       0.27272727       0.00000000       0.00000000 </v>
   <v>       0.36363636       0.00000000       0.00000000 </v>
   <v>       0.45454545       0.00000000       0.00000000 </v>
   <v>       0.09090909       0.09090909       0.00000000 </v>
   <v>       0.18181818       0.09090909       0.00000000 </v>
   <v>       0.27272727       0.09090909       0.00000000 </v>
   <v>       0.36363636       0.09090909       0.00000000 </v>
   <v>       0.45454545       0.09090909       0.00000000 </v>
   <v>      -0.45454545       0.09090909       0.00000000 </v>
   <v>      -0.36363636       0.09090909       0.00000000 </v>
   <v>      -0.27272727       0.09090909       0.00000000 </v>
   <v>      -0.18181818       0.09090909       0.00000000 </v>
   <v>      -0.09090909       0.09090909       0.00000000 </v>
   <v>       0.18181818       0.18181818       0.00000000 </v>
   <v>       0.27272727       0.18181818       0.00000000 </v>
   <v>       0.36363636       0.18181818       0.00000000 </v>
   <v>       0.45454545       0.18181818       0.00000000 </v>
   <v>      -0.45454545       0.18181818       0.00000000 </v>
   <v>      -0.36363636       0.18181818       0.00000000 </v>
   <v>      -0.27272727       0.18181818       0.00000000 </v>
   <v>      -0.18181818       0.18181818       0.00000000 </v>
   <v>       0.27272727       0.27272727       0.00000000 </v>
   <v>       0.36363636       0.27272727       0.00000000 </v>
   <v>       0.45454545       0.27272727       0.00000000 </v>
   <v>      -0.45454545       0.27272727       0.00000000 </v>
   <v>      -0.36363636       0.27272727       0.00000000 </v>
   <v>      -0.27272727       0.27272727       0.00000000 </v>
   <v>       0.36363636       0.36363636       0.00000000 </v>
   <v>       0.45454545       0.36363636       0.00000000 </v>
   <v>      -0.45454545       0.36363636       0.00000000 </v>
   <v>      -0.36363636       0.36363636       0.00000000 </v>
   <v>       0.45454545       0.45454545       0.00000000 </v>
   <v>      -0.45454545       0.45454545       0.00000000 </v>
   <v>       0.27272727       0.18181818       0.09090909 </v>
   <v>       0.36363636       0.18181818       0.09090909 </v>
   <v>       0.45454545       0.18181818       0.09090909 </v>
   <v>      -0.45454545       0.18181818       0.09090909 </v>
   <v>       0.36363636       0.27272727       0.09090909 </v>
   <v>       0.45454545       0.27272727       0.09090909 </v>
   <v>      -0.45454545       0.27272727       0.09090909 </v>
   <v>      -0.36363636       0.27272727       0.09090909 </v>
   <v>      -0.27272727       0.27272727       0.09090909 </v>
   <v>      -0.18181818       0.27272727       0.09090909 </v>
   <v>       0.45454545       0.36363636       0.09090909 </v>
   <v>      -0.45454545       0.36363636       0.09090909 </v>
   <v>      -0.36363636       0.36363636       0.09090909 </v>
   <v>      -0.27272727       0.36363636       0.09090909 </v>
   <v>      -0.45454545       0.45454545       0.09090909 </v>
   <v>      -0.36363636       0.45454545       0.09090909 </v>
   <v>      -0.45454545       0.36363636       0.18181818 </v>
   <v>      -0.36363636       0.36363636       0.18181818 </v>
   <v>      -0.36363636       0.45454545       0.18181818 </v>
   <v>      -0.27272727       0.45454545       0.18181818 </v>
  </varray>
  <varray name="weights" >
   <v>       0.00075131 </v>
   <v>       0.00601052 </v>
   <v>       0.00601052 </v>
   <v>       0.00601052 </v>
   <v>       0.00601052 </v>
   <v>       0.00601052 </v>
   <v>       0.00450789 </v>
   <v>       0.01803156 </v>
   <v>       0.01803156 </v>
   <v>       0.01803156 </v>
   <v>       0.01803156 </v>
   <v>       0.01803156 </v>
   <v>       0.01803156 </v>
   <v>       0.01803156 </v>
   <v>       0.01803156 </v>
   <v>       0.00901578 </v>
   <v>       0.00450789 </v>
   <v>       0.01803156 </v>
   <v>       0.01803156 </v>
   <v>       0.01803156 </v>
   <v>       0.01803156 </v>
   <v>       0.01803156 </v>
   <v>       0.01803156 </v>
   <v>       0.00901578 </v>
   <v>       0.00450789 </v>
   <v>       0.01803156 </v>
   <v>       0.01803156 </v>
   <v>       0.01803156 </v>
   <v>       0.01803156 </v>
   <v>       0.00901578 </v>
   <v>       0.00450789 </v>
   <v>       0.01803156 </v>
   <v>       0.01803156 </v>
   <v>       0.00901578 </v>
   <v>       0.00450789 </v>
   <v>       0.00901578 </v>
   <v>       0.01803156 </v>
   <v>       0.03606311 </v>
   <v>       0.03606311 </v>
   <v>       0.03606311 </v>
   <v>       0.01803156 </v>
   <v>       0.03606311 </v>
   <v>       0.03606311 </v>
   <v>       0.03606311 </v>
   <v>       0.03606311 </v>
   <v>       0.01803156 </v>
   <v>       0.01803156 </v>
   <v>       0.03606311 </v>
   <v>       0.03606311 </v>
   <v>       0.01803156 </v>
   <v>       0.01803156 </v>
   <v>       0.01803156 </v>
   <v>       0.01803156 </v>
   <v>       0.03606311 </v>
   <v>       0.01803156 </v>
   <v>       0.01803156 </v>
  </varray>
  <varray name="tetrahedronlist"  type="int" >
   <v type="int" >       24        1        2        2        7 </v>
   <v type="int" >       48        2        7        8       16 </v>
   <v type="int" >       48        2        3        8       16 </v>
   <v type="int" >       24        2        2        7       16 </v>
   <v type="int" >       48        3        8        9       15 </v>
   <v type="int" >       48        3        4        9       15 </v>
   <v type="int" >       48        3        8       15       16 </v>
   <v type="int" >       48        4        9       10       14 </v>
   <v type="int" >       48        4        5       10       14 </v>
   <v type="int" >       48        4        9       14       15 </v>
   <v type="int" >       48        5       10       11       13 </v>
   <v type="int" >       48        5        6       11       13 </v>
   <v type="int" >       48        5       10       13       14 </v>
   <v type="int" >       48        6       11       12       12 </v>
   <v type="int" >       24        6        6       12       12 </v>
   <v type="int" >       48        6       11       12       13 </v>
   <v type="int" >       24        7        8        8       17 </v>
   <v type="int" >       24        7        8        8       16 </v>
   <v type="int" >       48        8       17       18       37 </v>
   <v type="int" >       48        8        9       18       37 </v>
   <v type="int" >       48        8        9       15       37 </v>
   <v type="int" >       24        8        8       17       37 </v>
   <v type="int" >       24        8        8       16       37 </v>
   <v type="int" >       48        8       15       16       37 </v>
   <v type="int" >       48        9       18       19       38 </v>
   <v type="int" >       48        9       10       19       38 </v>
   <v type="int" >       48        9       10       14       38 </v>
   <v type="int" >       48        9       18       37       38 </v>
   <v type="int" >       48        9       15       37       38 </v>
   <v type="int" >       48        9       14       15       38 </v>
   <v type="int" >       48       10       19       20       39 </v>
   <v type="int" >       48       10       11       20       39 </v>
   <v type="int" >       48       10       11       13       39 </v>
   <v type="int" >       48       10       19       38       39 </v>
   <v type="int" >       48       10       14       38       39 </v>
   <v type="int" >       48       10       13       14       39 </v>
   <v type="int" >       48       11       20       21       40 </v>
   <v type="int" >       48       11       12       21       40 </v>
   <v type="int" >       48       11       12       12       40 </v>
   <v type="int" >       48       11       20       39       40 </v>
   <v type="int" >       48       11       13       39       40 </v>
   <v type="int" >       48       11       12       13       40 </v>
   <v type="int" >       48       12       21       22       40 </v>
   <v type="int" >       48       12       13       22       40 </v>
   <v type="int" >       48       12       21       40       40 </v>
   <v type="int" >       24       12       12       40       40 </v>
   <v type="int" >       48       13       22       23       39 </v>
   <v type="int" >       48       13       14       23       39 </v>
   <v type="int" >       48       13       22       39       40 </v>
   <v type="int" >       48       14       23       24       38 </v>
   <v type="int" >       48       14       15       24       38 </v>
   <v type="int" >       48       14       23       38       39 </v>
   <v type="int" >       24       15       15       24       37 </v>
   <v type="int" >       24       15       15       16       37 </v>
   <v type="int" >       48       15       24       37       38 </v>
   <v type="int" >       24       17       18       18       25 </v>
   <v type="int" >       24       17       18       18       37 </v>
   <v type="int" >       48       18       25       26       41 </v>
   <v type="int" >       48       18       19       26       41 </v>
   <v type="int" >       48       18       19       38       41 </v>
   <v type="int" >       24       18       18       25       41 </v>
   <v type="int" >       24       18       18       37       41 </v>
   <v type="int" >       48       18       37       38       41 </v>
   <v type="int" >       48       19       26       27       42 </v>
   <v type="int" >       48       19       20       27       42 </v>
   <v type="int" >       48       19       20       39       42 </v>
   <v type="int" >       48       19       26       41       42 </v>
   <v type="int" >       48       19       38       41       42 </v>
   <v type="int" >       48       19       38       39       42 </v>
   <v type="int" >       48       20       27       28       43 </v>
   <v type="int" >       48       20       21       28       43 </v>
   <v type="int" >       48       20       21       40       43 </v>
   <v type="int" >       48       20       27       42       43 </v>
   <v type="int" >       48       20       39       42       43 </v>
   <v type="int" >       48       20       39       40       43 </v>
   <v type="int" >       48       21       28       29       44 </v>
   <v type="int" >       48       21       22       29       44 </v>
   <v type="int" >       48       21       22       40       44 </v>
   <v type="int" >       48       21       28       43       44 </v>
   <v type="int" >       48       21       40       43       44 </v>
   <v type="int" >       48       21       40       40       44 </v>
   <v type="int" >       48       22       29       30       45 </v>
   <v type="int" >       48       22       23       30       45 </v>
   <v type="int" >       48       22       23       39       45 </v>
   <v type="int" >       48       22       29       44       45 </v>
   <v type="int" >       48       22       40       44       45 </v>
   <v type="int" >       48       22       39       40       45 </v>
   <v type="int" >       24       23       23       30       46 </v>
   <v type="int" >       24       23       23       24       46 </v>
   <v type="int" >       48       23       24       38       46 </v>
   <v type="int" >       48       23       30       45       46 </v>
   <v type="int" >       48       23       39       45       46 </v>
   <v type="int" >       48       23       38       39       46 </v>
   <v type="int" >       24       24       38       38       46 </v>
   <v type="int" >       24       24       37       38       38 </v>
   <v type="int" >       24       25       26       26       31 </v>
   <v type="int" >       24       25       26       26       41 </v>
   <v type="int" >       48       26       31       32       47 </v>
   <v type="int" >       48       26       27       32       47 </v>
   <v type="int" >       48       26       27       42       47 </v>
   <v type="int" >       24       26       26       31       47 </v>
   <v type="int" >       24       26       26       41       47 </v>
   <v type="int" >       48       26       41       42       47 </v>
   <v type="int" >       48       27       32       33       48 </v>
   <v type="int" >       48       27       28       33       48 </v>
   <v type="int" >       48       27       28       43       48 </v>
   <v type="int" >       48       27       32       47       48 </v>
   <v type="int" >       48       27       42       47       48 </v>
   <v type="int" >       48       27       42       43       48 </v>
   <v type="int" >       48       28       33       34       49 </v>
   <v type="int" >       48       28       29       34       49 </v>
   <v type="int" >       48       28       29       44       49 </v>
   <v type="int" >       48       28       33       48       49 </v>
   <v type="int" >       48       28       43       48       49 </v>
   <v type="int" >       48       28       43       44       49 </v>
   <v type="int" >       24       29       29       34       50 </v>
   <v type="int" >       24       29       29       30       50 </v>
   <v type="int" >       48       29       30       45       50 </v>
   <v type="int" >       48       29       34       49       50 </v>
   <v type="int" >       48       29       44       49       50 </v>
   <v type="int" >       48       29       44       45       50 </v>
   <v type="int" >       24       30       45       45       50 </v>
   <v type="int" >       24       30       45       45       46 </v>
   <v type="int" >       24       31       32       32       35 </v>
   <v type="int" >       24       31       32       32       47 </v>
   <v type="int" >       48       32       35       36       51 </v>
   <v type="int" >       48       32       33       36       51 </v>
   <v type="int" >       48       32       33       48       51 </v>
   <v type="int" >       24       32       32       35       51 </v>
   <v type="int" >       24       32       32       47       51 </v>
   <v type="int" >       48       32       47       48       51 </v>
   <v type="int" >       24       33       33       36       52 </v>
   <v type="int" >       24       33       33       34       52 </v>
   <v type="int" >       48       33       34       49       52 </v>
   <v type="int" >       48       33       36       51       52 </v>
   <v type="int" >       48       33       48       51       52 </v>
   <v type="int" >       48       33       48       49       52 </v>
   <v type="int" >       24       34       49       49       52 </v>
   <v type="int" >       24       34       49       49       50 </v>
   <v type="int" >       12       35       35       36       36 </v>
   <v type="int" >       24       35       36       36       51 </v>
   <v type="int" >       12       36       36       51       51 </v>
   <v type="int" >       24       36       51       51       52 </v>
   <v type="int" >       24       37       38       38       41 </v>
   <v type="int" >       48       38       41       42       46 </v>
   <v type="int" >       48       38       39       42       46 </v>
   <v type="int" >       24       38       38       41       46 </v>
   <v type="int" >       48       39       42       43       45 </v>
   <v type="int" >       48       39       40       43       45 </v>
   <v type="int" >       48       39       42       45       46 </v>
   <v type="int" >       48       40       43       44       44 </v>
   <v type="int" >       24       40       40       44       44 </v>
   <v type="int" >       48       40       43       44       45 </v>
   <v type="int" >       24       41       42       42       47 </v>
   <v type="int" >       24       41       42       42       46 </v>
   <v type="int" >       48       42       47       48       53 </v>
   <v type="int" >       48       42       43       48       53 </v>
   <v type="int" >       48       42       43       45       53 </v>
   <v type="int" >       24       42       42       47       53 </v>
   <v type="int" >       24       42       42       46       53 </v>
   <v type="int" >       48       42       45       46       53 </v>
   <v type="int" >       48       43       48       49       54 </v>
   <v type="int" >       48       43       44       49       54 </v>
   <v type="int" >       48       43       44       44       54 </v>
   <v type="int" >       48       43       48       53       54 </v>
   <v type="int" >       48       43       45       53       54 </v>
   <v type="int" >       48       43       44       45       54 </v>
   <v type="int" >       48       44       49       50       54 </v>
   <v type="int" >       48       44       45       50       54 </v>
   <v type="int" >       48       44       49       54       54 </v>
   <v type="int" >       24       44       44       54       54 </v>
   <v type="int" >       24       45       45       50       53 </v>
   <v type="int" >       24       45       45       46       53 </v>
   <v type="int" >       48       45       50       53       54 </v>
   <v type="int" >       24       47       48       48       51 </v>
   <v type="int" >       24       47       48       48       53 </v>
   <v type="int" >       48       48       51       52       55 </v>
   <v type="int" >       48       48       49       52       55 </v>
   <v type="int" >       48       48       49       54       55 </v>
   <v type="int" >       24       48       48       51       55 </v>
   <v type="int" >       24       48       48       53       55 </v>
   <v type="int" >       48       48       53       54       55 </v>
   <v type="int" >       24       49       49       52       56 </v>
   <v type="int" >       24       49       49       50       56 </v>
   <v type="int" >       48       49       50       54       56 </v>
   <v type="int" >       48       49       52       55       56 </v>
   <v type="int" >       48       49       54       55       56 </v>
   <v type="int" >       48       49       54       54       56 </v>
   <v type="int" >       24       50       54       54       56 </v>
   <v type="int" >       24       50       53       54       54 </v>
   <v type="int" >       12       51       51       52       52 </v>
   <v type="int" >       24       51       52       52       55 </v>
   <v type="int" >       12       52       52       55       55 </v>
   <v type="int" >       24       52       55       55       56 </v>
   <v type="int" >       24       53       54       54       55 </v>
   <v type="int" >       48       54       55       56       56 </v>
   <v type="int" >       24       54       54       56       56 </v>
   <v type="int" >       24       54       54       55       56 </v>
   <v type="int" >       12       55       55       56       56 </v>
   <v type="int" >       24       55       56       56       56 </v>
   <v type="int" >        6       56       56       56       56 </v>
  </varray>
  <i name="volumeweight">      0.00012522 </i>
 </kpoints>
 <parameters>
  <separator name="general" >
   <i type="string" name="SYSTEM">unknown system</i>
   <i type="logical" name="LCOMPAT"> F  </i>
  </separator>
  <separator name="electronic" >
   <i type="string" name="PREC">accura</i>
   <i name="ENMAX">    500.00000000</i>
   <i name="ENAUG">    322.06900000</i>
   <i name="EDIFF">      0.00001000</i>
   <i type="int" name="IALGO">    58</i>
   <i type="int" name="IWAVPR">    10</i>
   <i type="int" name="NBANDS">     8</i>
   <i name="NELECT">      8.00000000</i>
   <i type="int" name="TURBO">     0</i>
   <i type="int" name="IRESTART">     0</i>
   <i type="int" name="NREBOOT">     0</i>
   <i type="int" name="NMIN">     0</i>
   <i name="EREF">      0.00000000</i>
   <separator name="electronic smearing" >
    <i type="int" name="ISMEAR">    -5</i>
    <i name="SIGMA">      0.01000000</i>
    <i name="KSPACING">      0.20000000</i>
    <i type="logical" name="KGAMMA"> T  </i>
   </separator>
   <separator name="electronic projectors" >
    <i type="logical" name="LREAL"> F  </i>
    <v name="ROPT">      0.00000000</v>
    <i type="int" name="LMAXPAW">  -100</i>
    <i type="int" name="LMAXMIX">     2</i>
    <i type="logical" name="NLSPLINE"> F  </i>
   </separator>
   <separator name="electronic startup" >
    <i type="int" name="ISTART">     1</i>
    <i type="int" name="ICHARG">     0</i>
    <i type="int" name="INIWAV">     1</i>
   </separator>
   <separator name="electronic spin" >
    <i type="int" name="ISPIN">     1</i>
    <i type="logical" name="LNONCOLLINEAR"> F  </i>
    <v name="MAGMOM">      1.00000000      1.00000000</v>
    <i name="NUPDOWN">     -1.00000000</i>
    <i type="logical" name="LSORBIT"> F  </i>
    <v name="SAXIS">      0.00000000      0.00000000      1.00000000</v>
    <i type="logical" name="LSPIRAL"> F  </i>
    <v name="QSPIRAL">      0.00000000      0.00000000      0.00000000</v>
    <i type="logical" name="LZEROZ"> F  </i>
   </separator>
   <separator name="electronic exchange-correlation" >
    <i type="logical" name="LASPH"> T  </i>
    <i type="logical" name="LMETAGGA"> F  </i>
   </separator>
   <separator name="electronic convergence" >
    <i type="int" name="NELM">    60</i>
    <i type="int" name="NELMDL">     0</i>
    <i type="int" name="NELMIN">     2</i>
    <i name="ENINI">    500.00000000</i>
    <separator name="electronic convergence detail" >
     <i type="logical" name="LDIAG"> T  </i>
     <i type="logical" name="LSUBROT"> F  </i>
     <i name="WEIMIN">      0.00000000</i>
     <i name="EBREAK">      0.00000031</i>
     <i name="DEPER">      0.30000000</i>
     <i type="int" name="NRMM">     4</i>
     <i name="TIME">      0.30000000</i>
    </separator>
   </separator>
   <separator name="electronic mixer" >
    <i name="AMIX">      0.40000000</i>
    <i name="BMIX">      1.00000000</i>
    <i name="AMIN">      0.10000000</i>
    <i name="AMIX_MAG">      1.60000000</i>
    <i name="BMIX_MAG">      1.00000000</i>
    <separator name="electronic mixer details" >
     <i type="int" name="IMIX">     4</i>
     <i type="logical" name="MIXFIRST"> F  </i>
     <i type="int" name="MAXMIX">   -45</i>
     <i name="WC">    100.00000000</i>
     <i type="int" name="INIMIX">     1</i>
     <i type="int" name="MIXPRE">     1</i>
     <i type="int" name="MREMOVE">     5</i>
    </separator>
   </separator>
   <separator name="electronic dipolcorrection" >
    <i type="logical" name="LDIPOL"> F  </i>
    <i type="logical" name="LMONO"> F  </i>
    <i type="int" name="IDIPOL">     0</i>
    <i name="EPSILON">      1.00000000</i>
    <v name="DIPOL">   -100.00000000   -100.00000000   -100.00000000</v>
    <i name="EFIELD">      0.00000000</i>
   </separator>
  </separator>
  <separator name="grids" >
   <i type="int" name="NGX">    28</i>
   <i type="int" name="NGY">    28</i>
   <i type="int" name="NGZ">    28</i>
   <i type="int" name="NGXF">    56</i>
   <i type="int" name="NGYF">    56</i>
   <i type="int" name="NGZF">    56</i>
   <i type="logical" name="ADDGRID"> T  </i>
  </separator>
  <separator name="ionic" >
   <i type="int" name="NSW">     0</i>
   <i type="int" name="IBRION">    -1</i>
   <i type="int" name="ISIF">     0</i>
   <i name="PSTRESS">      0.00000000</i>
   <i name="EDIFFG">      0.00010000</i>
   <i type="int" name="NFREE">     0</i>
   <i name="POTIM">      0.50000000</i>
   <i name="SMASS">     -3.00000000</i>
   <i name="SCALEE">      1.00000000</i>
  </separator>
  <separator name="ionic md" >
   <i name="TEBEG">      0.00010000</i>
   <i name="TEEND">      0.00010000</i>
   <i type="int" name="NBLOCK">     1</i>
   <i type="int" name="KBLOCK">     1</i>
   <i type="int" name="NPACO">   256</i>
   <i name="APACO">     16.00000000</i>
  </separator>
  <separator name="symmetry" >
   <i type="int" name="ISYM">     3</i>
   <i name="SYMPREC">      0.00001000</i>
  </separator>
  <separator name="dos" >
   <i type="logical" name="LORBIT"> F  </i>
   <v name="RWIGS">     -1.00000000</v>
   <i type="int" name="NEDOS">  2001</i>
   <i name="EMIN">    -20.00000000</i>
   <i name="EMAX">     20.00000000</i>
   <i name="EFERMI">      0.00000000</i>
  </separator>
  <separator name="writing" >
   <i type="int" name="NWRITE">     2</i>
   <i type="logical" name="LWAVE"> F  </i>
   <i type="logical" name="LCHARG"> F  </i>
   <i type="logical" name="LPARD"> F  </i>
   <i type="logical" name="LVTOT"> F  </i>
   <i type="logical" name="LVHAR"> F  </i>
   <i type="logical" name="LELF"> F  </i>
   <i type="logical" name="LOPTICS"> F  </i>
   <v name="STM">      0.00000000      0.00000000      0.00000000      0.00000000      0.00000000      0.00000000      0.00000000</v>
  </separator>
  <separator name="performance" >
   <i type="int" name="NPAR">     4</i>
   <i type="int" name="NSIM">     4</i>
   <i type="int" name="NBLK">    -1</i>
   <i type="logical" name="LPLANE"> T  </i>
   <i type="logical" name="LSCALAPACK"> T  </i>
   <i type="logical" name="LSCAAWARE"> F  </i>
   <i type="logical" name="LSCALU"> F  </i>
   <i type="logical" name="LASYNC"> F  </i>
   <i type="logical" name="LORBITALREAL"> F  </i>
  </separator>
  <separator name="miscellaneous" >
   <i type="int" name="IDIOT">     3</i>
   <i type="logical" name="LMUSIC"> F  </i>
   <v name="POMASS">     28.08500000</v>
   <v name="DARWINR">      0.00000000</v>
   <v name="DARWINV">      1.00000000</v>
   <i type="logical" name="LCORR"> T  </i>
  </separator>
  <i type="logical" name="GGA_COMPAT"> T  </i>
  <i type="logical" name="LBERRY"> F  </i>
  <i type="int" name="ICORELEVEL">     0</i>
  <i type="logical" name="LDAU"> F  </i>
  <i type="int" name="I_CONSTRAINED_M">     0</i>
  <separator name="electronic exchange-correlation" >
   <i type="string" name="GGA">--</i>
   <i type="int" name="VOSKOWN">     0</i>
   <i type="logical" name="LHFCALC"> T  </i>
   <i type="string" name="PRECFOCK">fast</i>
   <i type="logical" name="LSYMGRAD"> F  </i>
   <i type="logical" name="LHFONE"> F  </i>
   <i type="logical" name="LRHFCALC"> F  </i>
   <i type="logical" name="LTHOMAS"> F  </i>
   <i type="logical" name="LMODELHF"> F  </i>
   <i name="ENCUT4O">     -1.00000000</i>
   <i type="int" name="EXXOEP">     0</i>
   <i type="int" name="FOURORBIT">     0</i>
   <i name="AEXX">      0.25000000</i>
   <i name="HFALPHA">     -1.00000000</i>
   <i name="MCALPHA">      0.00000000</i>
   <i name="ALDAX">      0.75000000</i>
   <i name="AGGAX">      0.75000000</i>
   <i name="ALDAC">      1.00000000</i>
   <i name="AGGAC">      1.00000000</i>
   <i type="int" name="NKREDX">     1</i>
   <i type="int" name="NKREDY">     1</i>
   <i type="int" name="NKREDZ">     1</i>
   <i type="logical" name="SHIFTRED"> F  </i>
   <i type="logical" name="ODDONLY"> F  </i>
   <i type="logical" name="EVENONLY"> F  </i>
   <i type="int" name="LMAXFOCK">     4</i>
   <i type="int" name="NMAXFOCKAE">     1</i>
   <i type="logical" name="LFOCKAEDFT"> F  </i>
   <i name="HFSCREEN">      0.20700000</i>
   <i name="HFSCREENC">      0.20700000</i>
   <i type="int" name="NBANDSGWLOW">     1</i>
  </separator>
  <separator name="vdW DFT" >
   <i type="logical" name="LUSE_VDW"> F  </i>
   <i name="Zab_VDW">     -0.84910000</i>
   <i name="PARAM1">      0.12340000</i>
   <i name="PARAM2">      1.00000000</i>
   <i name="PARAM3">      0.00000000</i>
  </separator>
  <separator name="model GW" >
   <i type="int" name="MODEL_GW">     0</i>
   <i name="MODEL_EPS0">     11.98236458</i>
   <i name="MODEL_ALPHA">      1.00000000</i>
  </separator>
  <separator name="linear response parameters" >
   <i type="logical" name="LEPSILON"> F  </i>
   <i type="logical" name="LRPA"> F  </i>
   <i type="logical" name="LNABLA"> F  </i>
   <i type="logical" name="LVEL"> F  </i>
   <i type="int" name="KINTER">     0</i>
   <i name="CSHIFT">      0.10000000</i>
   <i name="OMEGAMAX">     -1.00000000</i>
   <i name="DEG_THRESHOLD">      0.00200000</i>
  </separator>
  <separator name="orbital magnetization" >
   <i type="logical" name="NUCIND"> F  </i>
   <v name="MAGPOS">      0.00000000      0.00000000      0.00000000</v>
   <i type="logical" name="LNICSALL"> T  </i>
   <i type="logical" name="ORBITALMAG"> F  </i>
   <i type="logical" name="LMAGBLOCH"> F  </i>
   <i type="logical" name="LCHIMAG"> F  </i>
   <i type="logical" name="LGAUGE"> T  </i>
   <i type="int" name="MAGATOM">     0</i>
   <v name="MAGDIPOL">      0.00000000      0.00000000      0.00000000</v>
   <v name="AVECCONST">      0.00000000      0.00000000      0.00000000</v>
  </separator>
  <separator name="response functions" >
   <i type="logical" name="LADDER"> F  </i>
   <i type="logical" name="LFXC"> F  </i>
   <i type="logical" name="LHARTREE"> T  </i>
   <i type="int" name="IBSE">     0</i>
   <v type="int" name="KPOINT">    -1     0     0     0</v>
   <i type="logical" name="LTCTE"> F  </i>
   <i type="logical" name="LTETE"> F  </i>
   <i type="logical" name="LTRIPLET"> F  </i>
   <i type="logical" name="LFXCEPS"> F  </i>
   <i type="logical" name="LFXHEG"> F  </i>
   <i type="int" name="NATURALO">     0</i>
   <i type="logical" name="L2ORDER"> F  </i>
   <i type="logical" name="LUSEW"> F  </i>
   <i name="ENCUTGW">     -2.00000000</i>
   <i name="ENCUTGWSOFT">     -2.00000000</i>
   <i name="ENCUTLF">     -1.00000000</i>
   <i type="int" name="LMAXMP2">    -1</i>
   <i name="SCISSOR">      0.00000000</i>
   <i type="int" name="NOMEGA">     0</i>
   <i type="int" name="NOMEGAR">     0</i>
   <i type="int" name="NBANDSGW">    -1</i>
   <i type="int" name="NBANDSO">    -1</i>
   <i type="int" name="NBANDSV">    -1</i>
   <i type="int" name="NELM">     1</i>
   <i type="int" name="NELMHF">     1</i>
   <i type="int" name="DIM">     3</i>
   <i type="int" name="ANTIRES">     0</i>
   <i name="OMEGAMAX">    -30.00000000</i>
   <i name="OMEGAMIN">    -30.00000000</i>
   <i name="OMEGATL">   -200.00000000</i>
   <i type="int" name="OMEGAGRID">     0</i>
   <i name="CSHIFT">     -0.10000000</i>
   <i type="logical" name="SELFENERGY"> F  </i>
   <i type="logical" name="LSPECTRAL"> F  </i>
   <i type="logical" name="LSPECTRALGW"> F  </i>
   <i type="logical" name="LSINGLES"> F  </i>
   <i type="logical" name="LFERMIGW"> F  </i>
   <i type="logical" name="ODDONLYGW"> F  </i>
   <i type="logical" name="EVENONLYGW"> F  </i>
   <i type="int" name="NKREDLFX">     1</i>
   <i type="int" name="NKREDLFY">     1</i>
   <i type="int" name="NKREDLFZ">     1</i>
   <i type="int" name="MAXMEM">  1800</i>
   <i type="int" name="TELESCOPE">     0</i>
   <i type="int" name="TAUPAR">     1</i>
   <i type="int" name="OMEGAPAR">    -1</i>
   <i name="LAMBDA">      1.00000000</i>
  </separator>
  <separator name="External order field" >
   <i name="OFIELD_KAPPA">      0.00000000</i>
   <v name="OFIELD_K">      0.00000000      0.00000000      0.00000000</v>
   <i name="OFIELD_Q6_NEAR">      0.00000000</i>
   <i name="OFIELD_Q6_FAR">      0.00000000</i>
   <i name="OFIELD_A">      0.00000000</i>
  </separator>
 </parameters>
 <atominfo>
  <atoms>       2 </atoms>
  <types>       1 </types>
  <array name="atoms" >
   <dimension dim="1">ion</dimension>
   <field type="string">element</field>
   <field type="int">atomtype</field>
   <set>
    <rc><c>Si</c><c>   1</c></rc>
    <rc><c>Si</c><c>   1</c></rc>
   </set>
  </array>
  <array name="atomtypes" >
   <dimension dim="1">type</dimension>
   <field type="int">atomspertype</field>
   <field type="string">element</field>
   <field>mass</field>
   <field>valence</field>
   <field type="string">pseudopotential</field>
   <set>
    <rc><c>   2</c><c>Si</c><c>     28.08500000</c><c>      4.00000000</c><c>  PAW_PBE Si 05Jan2001                  </c></rc>
   </set>
  </array>
 </atominfo>
 <structure name="initialpos" >
  <crystal>
   <varray name="basis" >
    <v>       2.71308725       2.71308725       0.00000000 </v>
    <v>       0.00000000       2.71308725       2.71308725 </v>
    <v>       2.71308725       0.00000000       2.71308725 </v>
   </varray>
   <i name="volume">     39.94121528 </i>
   <varray name="rec_basis" >
    <v>       0.18429190       0.18429190      -0.18429190 </v>
    <v>      -0.18429190       0.18429190       0.18429190 </v>
    <v>       0.18429190      -0.18429190       0.18429190 </v>
   </varray>
  </crystal>
  <varray name="positions" >
   <v>       0.00000000       0.00000000       0.00000000 </v>
   <v>       0.25000000       0.25000000       0.25000000 </v>
  </varray>
 </structure>
 <calculation>
  <scstep>
   <time name="total">   57.47   57.51</time>
   <energy>
    <i name="alphaZ">      3.37126756 </i>
    <i name="ewald">   -228.72466456 </i>
    <i name="hartreedc">    -14.94300062 </i>
    <i name="XCdc">    -14.40031609 </i>
    <i name="pawpsdc">   1700.61436417 </i>
    <i name="pawaedc">  -1672.94540651 </i>
    <i name="eentropy">      0.00000000 </i>
    <i name="bandstr">     -0.75670822 </i>
    <i name="atom">    204.02745786 </i>
    <i name="e_fr_energy">    -12.55622546 </i>
    <i name="e_wo_entrp">    -12.55622546 </i>
    <i name="e_0_energy">    -12.55622546 </i>
   </energy>
  </scstep>
  <scstep>
   <time name="total">   57.66   57.77</time>
   <energy>
    <i name="alphaZ">      3.37126756 </i>
    <i name="ewald">   -228.72466456 </i>
    <i name="hartreedc">    -14.94300742 </i>
    <i name="XCdc">    -14.40031698 </i>
    <i name="pawpsdc">   1700.48830248 </i>
    <i name="pawaedc">  -1672.81934686 </i>
    <i name="eentropy">      0.00000000 </i>
    <i name="bandstr">     -0.75671154 </i>
    <i name="atom">    204.02745786 </i>
    <i name="e_fr_energy">    -12.55622565 </i>
    <i name="e_wo_entrp">    -12.55622565 </i>
    <i name="e_0_energy">    -12.55622565 </i>
   </energy>
  </scstep>
  <structure>
   <crystal>
    <varray name="basis" >
     <v>       2.71308725       2.71308725       0.00000000 </v>
     <v>       0.00000000       2.71308725       2.71308725 </v>
     <v>       2.71308725       0.00000000       2.71308725 </v>
    </varray>
    <i name="volume">     39.94121528 </i>
    <varray name="rec_basis" >
     <v>       0.18429190       0.18429190      -0.18429190 </v>
     <v>      -0.18429190       0.18429190       0.18429190 </v>
     <v>       0.18429190      -0.18429190       0.18429190 </v>
    </varray>
   </crystal>
   <varray name="positions" >
    <v>       0.00000000       0.00000000       0.00000000 </v>
    <v>       0.25000000       0.25000000       0.25000000 </v>
   </varray>
  </structure>
  <varray name="forces" >
   <v>      -0.00000000      -0.00000000      -0.00000000 </v>
   <v>       0.00000000       0.00000000       0.00000000 </v>
  </varray>
  <energy>
   <i name="e_fr_energy">    -12.55622565 </i>
   <i name="e_wo_entrp">    -12.55622565 </i>
   <i name="e_0_energy">      0.00000000 </i>
  </energy>
  <time name="totalsc">  139.95  140.18</time>
  <eigenvalues>
   <array>
    <dimension dim="1">band</dimension>
    <dimension dim="2">kpoint</dimension>
    <dimension dim="3">spin</dimension>
    <field>eigene</field>
    <field>occ</field>
    <set>
     <set comment="spin 1">
      <set comment="kpoint 1">
       <r>   -7.8141    1.0000 </r>
       <r>    5.4989    1.0000 </r>
       <r>    5.4989    1.0000 </r>
       <r>    5.4989    1.0000 </r>
       <r>    8.8231    0.0000 </r>
       <r>    8.8231    0.0000 </r>
       <r>    8.8231    0.0000 </r>
       <r>    9.8449    0.0000 </r>
      </set>
      <set comment="kpoint 2">
       <r>   -7.6939    1.0000 </r>
       <r>    4.4692    1.0000 </r>
       <r>    5.3258    1.0000 </r>
       <r>    5.3258    1.0000 </r>
       <r>    8.8636    0.0000 </r>
       <r>    9.0832    0.0000 </r>
       <r>    9.0832    0.0000 </r>
       <r>   10.6112    0.0000 </r>
      </set>
      <set comment="kpoint 3">
       <r>   -7.3375    1.0000 </r>
       <r>    2.6168    1.0000 </r>
       <r>    4.9592    1.0000 </r>
       <r>    4.9592    1.0000 </r>
       <r>    8.5504    0.0000 </r>
       <r>    9.5926    0.0000 </r>
       <r>    9.5926    0.0000 </r>
       <r>   12.2622    0.0000 </r>
      </set>
      <set comment="kpoint 4">
       <r>   -6.7625    1.0000 </r>
       <r>    0.7485    1.0000 </r>
       <r>    4.5995    1.0000 </r>
       <r>    4.5995    1.0000 </r>
       <r>    8.1834    0.0000 </r>
       <r>    9.8541    0.0000 </r>
       <r>    9.8541    0.0000 </r>
       <r>   13.8764    0.0000 </r>
      </set>
      <set comment="kpoint 5">
       <r>   -6.0246    1.0000 </r>
       <r>   -0.8979    1.0000 </r>
       <r>    4.3371    1.0000 </r>
       <r>    4.3371    1.0000 </r>
       <r>    7.9075    0.0000 </r>
       <r>    9.7762    0.0000 </r>
       <r>    9.7762    0.0000 </r>
       <r>   14.3399    0.0000 </r>
      </set>
      <set comment="kpoint 6">
       <r>   -5.3398    1.0000 </r>
       <r>   -2.0474    1.0000 </r>
       <r>    4.2019    1.0000 </r>
       <r>    4.2019    1.0000 </r>
       <r>    7.7640    0.0000 </r>
       <r>    9.6530    0.0000 </r>
       <r>    9.6530    0.0000 </r>
       <r>   14.1504    0.0000 </r>
      </set>
      <set comment="kpoint 7">
       <r>   -7.6536    1.0000 </r>
       <r>    4.6692    1.0000 </r>
       <r>    4.9838    1.0000 </r>
       <r>    4.9838    1.0000 </r>
       <r>    8.4633    0.0000 </r>
       <r>    9.5277    0.0000 </r>
       <r>    9.5277    0.0000 </r>
       <r>   10.5724    0.0000 </r>
      </set>
      <set comment="kpoint 8">
       <r>   -7.3750    1.0000 </r>
       <r>    3.1737    1.0000 </r>
       <r>    4.5498    1.0000 </r>
       <r>    4.7646    1.0000 </r>
       <r>    8.4806    0.0000 </r>
       <r>    9.6474    0.0000 </r>
       <r>   10.1704    0.0000 </r>
       <r>   11.4225    0.0000 </r>
      </set>
      <set comment="kpoint 9">
       <r>   -6.8700    1.0000 </r>
       <r>    1.3545    1.0000 </r>
       <r>    4.1916    1.0000 </r>
       <r>    4.3641    1.0000 </r>
       <r>    8.6160    0.0000 </r>
       <r>    9.6407    0.0000 </r>
       <r>   10.5478    0.0000 </r>
       <r>   11.7496    0.0000 </r>
      </set>
      <set comment="kpoint 10">
       <r>   -6.1756    1.0000 </r>
       <r>   -0.3499    1.0000 </r>
       <r>    3.9414    1.0000 </r>
       <r>    3.9772    1.0000 </r>
       <r>    8.4765    0.0000 </r>
       <r>    9.6314    0.0000 </r>
       <r>   10.4605    0.0000 </r>
       <r>   12.5901    0.0000 </r>
      </set>
      <set comment="kpoint 11">
       <r>   -5.4250    1.0000 </r>
       <r>   -1.7001    1.0000 </r>
       <r>    3.6074    1.0000 </r>
       <r>    3.9261    1.0000 </r>
       <r>    8.3425    0.0000 </r>
       <r>    9.5553    0.0000 </r>
       <r>   10.1972    0.0000 </r>
       <r>   13.9201    0.0000 </r>
      </set>
      <set comment="kpoint 12">
       <r>   -5.1214    1.0000 </r>
       <r>   -2.1548    1.0000 </r>
       <r>    3.4082    1.0000 </r>
       <r>    4.0351    1.0000 </r>
       <r>    8.3264    0.0000 </r>
       <r>    9.5986    0.0000 </r>
       <r>    9.9989    0.0000 </r>
       <r>   14.5625    0.0000 </r>
      </set>
      <set comment="kpoint 13">
       <r>   -5.6647    1.0000 </r>
       <r>   -1.3068    1.0000 </r>
       <r>    3.3689    1.0000 </r>
       <r>    4.2865    1.0000 </r>
       <r>    8.4432    0.0000 </r>
       <r>    9.7985    0.0000 </r>
       <r>    9.9263    0.0000 </r>
       <r>   14.3300    0.0000 </r>
      </set>
      <set comment="kpoint 14">
       <r>   -6.4253    1.0000 </r>
       <r>    0.1961    1.0000 </r>
       <r>    3.5067    1.0000 </r>
       <r>    4.6463    1.0000 </r>
       <r>    8.6804    0.0000 </r>
       <r>    9.8763    0.0000 </r>
       <r>   10.0361    0.0000 </r>
       <r>   13.2624    0.0000 </r>
      </set>
      <set comment="kpoint 15">
       <r>   -7.0633    1.0000 </r>
       <r>    1.9457    1.0000 </r>
       <r>    3.8393    1.0000 </r>
       <r>    5.0471    1.0000 </r>
       <r>    9.0010    0.0000 </r>
       <r>    9.5882    0.0000 </r>
       <r>    9.9205    0.0000 </r>
       <r>   12.3540    0.0000 </r>
      </set>
      <set comment="kpoint 16">
       <r>   -7.4946    1.0000 </r>
       <r>    3.5882    1.0000 </r>
       <r>    4.4587    1.0000 </r>
       <r>    5.3444    1.0000 </r>
       <r>    9.1516    0.0000 </r>
       <r>    9.2564    0.0000 </r>
       <r>    9.2924    0.0000 </r>
       <r>   11.5024    0.0000 </r>
      </set>
      <set comment="kpoint 17">
       <r>   -7.1744    1.0000 </r>
       <r>    3.0268    1.0000 </r>
       <r>    4.0704    1.0000 </r>
       <r>    4.0704    1.0000 </r>
       <r>    7.7446    0.0000 </r>
       <r>   10.4953    0.0000 </r>
       <r>   10.9968    0.0000 </r>
       <r>   10.9968    0.0000 </r>
      </set>
      <set comment="kpoint 18">
       <r>   -6.7430    1.0000 </r>
       <r>    1.7185    1.0000 </r>
       <r>    3.6274    1.0000 </r>
       <r>    3.6842    1.0000 </r>
       <r>    7.7857    0.0000 </r>
       <r>   10.0194    0.0000 </r>
       <r>   11.2948    0.0000 </r>
       <r>   11.6307    0.0000 </r>
      </set>
      <set comment="kpoint 19">
       <r>   -6.1053    1.0000 </r>
       <r>    0.1657    1.0000 </r>
       <r>    3.0511    1.0000 </r>
       <r>    3.4597    1.0000 </r>
       <r>    8.0400    0.0000 </r>
       <r>   10.4000    0.0000 </r>
       <r>   11.0803    0.0000 </r>
       <r>   11.6986    0.0000 </r>
      </set>
      <set comment="kpoint 20">
       <r>   -5.3433    1.0000 </r>
       <r>   -1.2356    1.0000 </r>
       <r>    2.5206    1.0000 </r>
       <r>    3.4194    1.0000 </r>
       <r>    8.0920    0.0000 </r>
       <r>   10.8186    0.0000 </r>
       <r>   11.4107    0.0000 </r>
       <r>   11.7259    0.0000 </r>
      </set>
      <set comment="kpoint 21">
       <r>   -4.7999    1.0000 </r>
       <r>   -2.0399    1.0000 </r>
       <r>    2.1431    1.0000 </r>
       <r>    3.5627    1.0000 </r>
       <r>    8.2108    0.0000 </r>
       <r>   10.6741    0.0000 </r>
       <r>   11.0966    0.0000 </r>
       <r>   13.4721    0.0000 </r>
      </set>
      <set comment="kpoint 22">
       <r>   -5.1209    1.0000 </r>
       <r>   -1.5739    1.0000 </r>
       <r>    1.9699    1.0000 </r>
       <r>    3.8710    1.0000 </r>
       <r>    8.4981    0.0000 </r>
       <r>   10.6472    0.0000 </r>
       <r>   10.8697    0.0000 </r>
       <r>   14.3611    0.0000 </r>
      </set>
      <set comment="kpoint 23">
       <r>   -5.8746    1.0000 </r>
       <r>   -0.3095    1.0000 </r>
       <r>    2.0611    1.0000 </r>
       <r>    4.3002    1.0000 </r>
       <r>    8.9184    0.0000 </r>
       <r>   10.6402    0.0000 </r>
       <r>   10.6761    0.0000 </r>
       <r>   12.8911    0.0000 </r>
      </set>
      <set comment="kpoint 24">
       <r>   -6.5639    1.0000 </r>
       <r>    1.0367    1.0000 </r>
       <r>    2.6026    1.0000 </r>
       <r>    4.7553    1.0000 </r>
       <r>    9.3107    0.0000 </r>
       <r>   10.1253    0.0000 </r>
       <r>   10.3251    0.0000 </r>
       <r>   12.1571    0.0000 </r>
      </set>
      <set comment="kpoint 25">
       <r>   -6.3848    1.0000 </r>
       <r>    1.2045    1.0000 </r>
       <r>    3.2595    1.0000 </r>
       <r>    3.2595    1.0000 </r>
       <r>    7.0956    0.0000 </r>
       <r>    9.0213    0.0000 </r>
       <r>   12.7044    0.0000 </r>
       <r>   12.7044    0.0000 </r>
      </set>
      <set comment="kpoint 26">
       <r>   -5.8110    1.0000 </r>
       <r>    0.1225    1.0000 </r>
       <r>    2.6801    1.0000 </r>
       <r>    2.9968    1.0000 </r>
       <r>    7.2282    0.0000 </r>
       <r>    8.7046    0.0000 </r>
       <r>   13.0216    0.0000 </r>
       <r>   13.1936    0.0000 </r>
      </set>
      <set comment="kpoint 27">
       <r>   -5.0719    1.0000 </r>
       <r>   -1.0432    1.0000 </r>
       <r>    1.8845    1.0000 </r>
       <r>    2.9254    1.0000 </r>
       <r>    7.4464    0.0000 </r>
       <r>    9.5135    0.0000 </r>
       <r>   12.8523    0.0000 </r>
       <r>   13.0236    0.0000 </r>
      </set>
      <set comment="kpoint 28">
       <r>   -4.3804    1.0000 </r>
       <r>   -1.9515    1.0000 </r>
       <r>    1.2448    1.0000 </r>
       <r>    3.0500    1.0000 </r>
       <r>    7.5966    0.0000 </r>
       <r>   11.0893    0.0000 </r>
       <r>   12.6681    0.0000 </r>
       <r>   12.6894    0.0000 </r>
      </set>
      <set comment="kpoint 29">
       <r>   -4.4425    1.0000 </r>
       <r>   -1.8623    1.0000 </r>
       <r>    0.9235    1.0000 </r>
       <r>    3.3564    1.0000 </r>
       <r>    7.9167    0.0000 </r>
       <r>   12.2169    0.0000 </r>
       <r>   12.3157    0.0000 </r>
       <r>   13.3411    0.0000 </r>
      </set>
      <set comment="kpoint 30">
       <r>   -5.1562    1.0000 </r>
       <r>   -1.0034    1.0000 </r>
       <r>    1.1053    1.0000 </r>
       <r>    3.8045    1.0000 </r>
       <r>    8.4112    0.0000 </r>
       <r>   11.7104    0.0000 </r>
       <r>   11.9293    0.0000 </r>
       <r>   13.0100    0.0000 </r>
      </set>
      <set comment="kpoint 31">
       <r>   -5.3006    1.0000 </r>
       <r>   -0.6256    1.0000 </r>
       <r>    2.6864    1.0000 </r>
       <r>    2.6864    1.0000 </r>
       <r>    6.7052    0.0000 </r>
       <r>    7.7942    0.0000 </r>
       <r>   14.5033    0.0000 </r>
       <r>   14.5033    0.0000 </r>
      </set>
      <set comment="kpoint 32">
       <r>   -4.6032    1.0000 </r>
       <r>   -1.5467    1.0000 </r>
       <r>    2.1109    1.0000 </r>
       <r>    2.5667    1.0000 </r>
       <r>    6.9244    0.0000 </r>
       <r>    7.8052    0.0000 </r>
       <r>   14.8321    0.0000 </r>
       <r>   14.8569    0.0000 </r>
      </set>
      <set comment="kpoint 33">
       <r>   -3.8442    1.0000 </r>
       <r>   -2.3559    1.0000 </r>
       <r>    1.2559    1.0000 </r>
       <r>    2.6480    1.0000 </r>
       <r>    7.1108    0.0000 </r>
       <r>    9.0827    0.0000 </r>
       <r>   14.5229    0.0000 </r>
       <r>   14.7036    0.0000 </r>
      </set>
      <set comment="kpoint 34">
       <r>   -3.7686    1.0000 </r>
       <r>   -2.3937    1.0000 </r>
       <r>    0.7138    1.0000 </r>
       <r>    2.9220    1.0000 </r>
       <r>    7.4145    0.0000 </r>
       <r>   10.9345    0.0000 </r>
       <r>   13.8438    0.0000 </r>
       <r>   14.3721    0.0000 </r>
      </set>
      <set comment="kpoint 35">
       <r>   -3.9482    1.0000 </r>
       <r>   -2.3695    1.0000 </r>
       <r>    2.3930    1.0000 </r>
       <r>    2.3930    1.0000 </r>
       <r>    6.6583    0.0000 </r>
       <r>    7.0081    0.0000 </r>
       <r>   16.3409    0.0000 </r>
       <r>   16.3409    0.0000 </r>
      </set>
      <set comment="kpoint 36">
       <r>   -3.2209    1.0000 </r>
       <r>   -3.0957    1.0000 </r>
       <r>    1.9238    1.0000 </r>
       <r>    2.4210    1.0000 </r>
       <r>    6.8531    0.0000 </r>
       <r>    7.4702    0.0000 </r>
       <r>   16.3017    0.0000 </r>
       <r>   16.6066    0.0000 </r>
      </set>
      <set comment="kpoint 37">
       <r>   -7.0206    1.0000 </r>
       <r>    2.2131    1.0000 </r>
       <r>    3.5342    1.0000 </r>
       <r>    4.6232    1.0000 </r>
       <r>    8.5355    0.0000 </r>
       <r>   10.0150    0.0000 </r>
       <r>   10.7599    0.0000 </r>
       <r>   11.1331    0.0000 </r>
      </set>
      <set comment="kpoint 38">
       <r>   -6.4483    1.0000 </r>
       <r>    0.7255    1.0000 </r>
       <r>    2.9132    1.0000 </r>
       <r>    4.2705    1.0000 </r>
       <r>    8.8755    0.0000 </r>
       <r>    9.9301    0.0000 </r>
       <r>   11.0877    0.0000 </r>
       <r>   11.2730    0.0000 </r>
      </set>
      <set comment="kpoint 39">
       <r>   -5.7116    1.0000 </r>
       <r>   -0.7939    1.0000 </r>
       <r>    2.6284    1.0000 </r>
       <r>    3.8865    1.0000 </r>
       <r>    8.9342    0.0000 </r>
       <r>    9.6389    0.0000 </r>
       <r>   11.2236    0.0000 </r>
       <r>   12.1806    0.0000 </r>
      </set>
      <set comment="kpoint 40">
       <r>   -5.0211    1.0000 </r>
       <r>   -1.9053    1.0000 </r>
       <r>    2.5190    1.0000 </r>
       <r>    3.6489    1.0000 </r>
       <r>    8.9321    0.0000 </r>
       <r>    9.3803    0.0000 </r>
       <r>   11.1406    0.0000 </r>
       <r>   13.7748    0.0000 </r>
      </set>
      <set comment="kpoint 41">
       <r>   -6.2416    1.0000 </r>
       <r>    0.7654    1.0000 </r>
       <r>    2.7301    1.0000 </r>
       <r>    3.5111    1.0000 </r>
       <r>    7.9146    0.0000 </r>
       <r>    9.5653    0.0000 </r>
       <r>   11.4317    0.0000 </r>
       <r>   12.5686    0.0000 </r>
      </set>
      <set comment="kpoint 42">
       <r>   -5.5504    1.0000 </r>
       <r>   -0.4567    1.0000 </r>
       <r>    2.0971    1.0000 </r>
       <r>    3.1632    1.0000 </r>
       <r>    8.3050    0.0000 </r>
       <r>    9.9923    0.0000 </r>
       <r>   11.0995    0.0000 </r>
       <r>   12.9807    0.0000 </r>
      </set>
      <set comment="kpoint 43">
       <r>   -4.7945    1.0000 </r>
       <r>   -1.5998    1.0000 </r>
       <r>    1.6697    1.0000 </r>
       <r>    2.9884    1.0000 </r>
       <r>    8.4508    0.0000 </r>
       <r>   10.5977    0.0000 </r>
       <r>   11.5362    0.0000 </r>
       <r>   12.9316    0.0000 </r>
      </set>
      <set comment="kpoint 44">
       <r>   -4.4934    1.0000 </r>
       <r>   -1.9961    1.0000 </r>
       <r>    1.4113    1.0000 </r>
       <r>    3.0884    1.0000 </r>
       <r>    8.6851    0.0000 </r>
       <r>   10.3329    0.0000 </r>
       <r>   12.7761    0.0000 </r>
       <r>   13.3297    0.0000 </r>
      </set>
      <set comment="kpoint 45">
       <r>   -5.0635    1.0000 </r>
       <r>   -1.2150    1.0000 </r>
       <r>    1.3982    1.0000 </r>
       <r>    3.4181    1.0000 </r>
       <r>    9.0867    0.0000 </r>
       <r>   10.1290    0.0000 </r>
       <r>   12.0178    0.0000 </r>
       <r>   12.6893    0.0000 </r>
      </set>
      <set comment="kpoint 46">
       <r>   -5.8212    1.0000 </r>
       <r>   -0.1048    1.0000 </r>
       <r>    1.8220    1.0000 </r>
       <r>    3.8773    1.0000 </r>
       <r>    9.5882    0.0000 </r>
       <r>    9.6839    0.0000 </r>
       <r>   11.0228    0.0000 </r>
       <r>   12.2274    0.0000 </r>
      </set>
      <set comment="kpoint 47">
       <r>   -5.1777    1.0000 </r>
       <r>   -0.7808    1.0000 </r>
       <r>    2.1911    1.0000 </r>
       <r>    2.6149    1.0000 </r>
       <r>    7.5220    0.0000 </r>
       <r>    8.4372    0.0000 </r>
       <r>   12.9245    0.0000 </r>
       <r>   14.4615    0.0000 </r>
      </set>
      <set comment="kpoint 48">
       <r>   -4.4131    1.0000 </r>
       <r>   -1.7104    1.0000 </r>
       <r>    1.4825    1.0000 </r>
       <r>    2.4199    1.0000 </r>
       <r>    7.8944    0.0000 </r>
       <r>    9.3154    0.0000 </r>
       <r>   12.5378    0.0000 </r>
       <r>   14.8522    0.0000 </r>
      </set>
      <set comment="kpoint 49">
       <r>   -3.8830    1.0000 </r>
       <r>   -2.2751    1.0000 </r>
       <r>    0.8992    1.0000 </r>
       <r>    2.5511    1.0000 </r>
       <r>    8.1279    0.0000 </r>
       <r>   10.9888    0.0000 </r>
       <r>   12.2319    0.0000 </r>
       <r>   13.9384    0.0000 </r>
      </set>
      <set comment="kpoint 50">
       <r>   -4.3176    1.0000 </r>
       <r>   -1.8230    1.0000 </r>
       <r>    0.7826    1.0000 </r>
       <r>    2.9122    1.0000 </r>
       <r>    8.5348    0.0000 </r>
       <r>   11.4762    0.0000 </r>
       <r>   12.2953    0.0000 </r>
       <r>   13.2476    0.0000 </r>
      </set>
      <set comment="kpoint 51">
       <r>   -3.8647    1.0000 </r>
       <r>   -2.3654    1.0000 </r>
       <r>    1.9704    1.0000 </r>
       <r>    2.1014    1.0000 </r>
       <r>    7.4441    0.0000 </r>
       <r>    7.7347    0.0000 </r>
       <r>   14.5679    0.0000 </r>
       <r>   16.2072    0.0000 </r>
      </set>
      <set comment="kpoint 52">
       <r>   -3.2937    1.0000 </r>
       <r>   -2.8698    1.0000 </r>
       <r>    1.2453    1.0000 </r>
       <r>    2.1854    1.0000 </r>
       <r>    7.7486    0.0000 </r>
       <r>    9.0947    0.0000 </r>
       <r>   14.0805    0.0000 </r>
       <r>   14.3118    0.0000 </r>
      </set>
      <set comment="kpoint 53">
       <r>   -4.8280    1.0000 </r>
       <r>   -1.2271    1.0000 </r>
       <r>    1.3582    1.0000 </r>
       <r>    2.6560    1.0000 </r>
       <r>    9.3218    0.0000 </r>
       <r>    9.9501    0.0000 </r>
       <r>   10.7262    0.0000 </r>
       <r>   14.3246    0.0000 </r>
      </set>
      <set comment="kpoint 54">
       <r>   -4.1133    1.0000 </r>
       <r>   -2.0192    1.0000 </r>
       <r>    1.0434    1.0000 </r>
       <r>    2.3010    1.0000 </r>
       <r>    9.6827    0.0000 </r>
       <r>   10.1319    0.0000 </r>
       <r>   11.5176    0.0000 </r>
       <r>   13.5322    0.0000 </r>
      </set>
      <set comment="kpoint 55">
       <r>   -3.6533    1.0000 </r>
       <r>   -2.4128    1.0000 </r>
       <r>    1.2980    1.0000 </r>
       <r>    1.7226    1.0000 </r>
       <r>    9.2208    0.0000 </r>
       <r>    9.4315    0.0000 </r>
       <r>   12.0950    0.0000 </r>
       <r>   13.7949    0.0000 </r>
      </set>
      <set comment="kpoint 56">
       <r>   -3.4267    1.0000 </r>
       <r>   -2.5990    1.0000 </r>
       <r>    0.9852    1.0000 </r>
       <r>    1.7653    1.0000 </r>
       <r>    9.5848    0.0000 </r>
       <r>   10.9217    0.0000 </r>
       <r>   11.8464    0.0000 </r>
       <r>   11.9084    0.0000 </r>
      </set>
     </set>
    </set>
   </array>
  </eigenvalues>
  <separator name="orbital magnetization" >
   <v name="MAGDIPOLOUT">      0.00000000      0.00000000      0.00000000</v>
  </separator>
  <dos>
   <i name="efermi">      5.50000488 </i>
   <total>
    <array>
     <dimension dim="1">gridpoints</dimension>
     <dimension dim="2">spin</dimension>
     <field>energy</field>
     <field>total</field>
     <field>integrated</field>
     <set>
      <set comment="spin 1">
       <r>   -20.0000     0.0000     0.0000 </r>
       <r>   -19.9800     0.0000     0.0000 </r>
       <r>   -19.9600     0.0000     0.0000 </r>
       <r>   -19.9400     0.0000     0.0000 </r>
       <r>   -19.9200     0.0000     0.0000 </r>
       <r>   -19.9000     0.0000     0.0000 </r>
       <r>   -19.8800     0.0000     0.0000 </r>
       <r>   -19.8600     0.0000     0.0000 </r>
       <r>   -19.8400     0.0000     0.0000 </r>
       <r>   -19.8200     0.0000     0.0000 </r>
       <r>   -19.8000     0.0000     0.0000 </r>
       <r>   -19.7800     0.0000     0.0000 </r>
       <r>   -19.7600     0.0000     0.0000 </r>
       <r>   -19.7400     0.0000     0.0000 </r>
       <r>   -19.7200     0.0000     0.0000 </r>
       <r>   -19.7000     0.0000     0.0000 </r>
       <r>   -19.6800     0.0000     0.0000 </r>
       <r>   -19.6600     0.0000     0.0000 </r>
       <r>   -19.6400     0.0000     0.0000 </r>
       <r>   -19.6200     0.0000     0.0000 </r>
       <r>   -19.6000     0.0000     0.0000 </r>
       <r>   -19.5800     0.0000     0.0000 </r>
       <r>   -19.5600     0.0000     0.0000 </r>
       <r>   -19.5400     0.0000     0.0000 </r>
       <r>   -19.5200     0.0000     0.0000 </r>
       <r>   -19.5000     0.0000     0.0000 </r>
       <r>   -19.4800     0.0000     0.0000 </r>
       <r>   -19.4600     0.0000     0.0000 </r>
       <r>   -19.4400     0.0000     0.0000 </r>
       <r>   -19.4200     0.0000     0.0000 </r>
       <r>   -19.4000     0.0000     0.0000 </r>
       <r>   -19.3800     0.0000     0.0000 </r>
       <r>   -19.3600     0.0000     0.0000 </r>
       <r>   -19.3400     0.0000     0.0000 </r>
       <r>   -19.3200     0.0000     0.0000 </r>
       <r>   -19.3000     0.0000     0.0000 </r>
       <r>   -19.2800     0.0000     0.0000 </r>
       <r>   -19.2600     0.0000     0.0000 </r>
       <r>   -19.2400     0.0000     0.0000 </r>
       <r>   -19.2200     0.0000     0.0000 </r>
       <r>   -19.2000     0.0000     0.0000 </r>
       <r>   -19.1800     0.0000     0.0000 </r>
       <r>   -19.1600     0.0000     0.0000 </r>
       <r>   -19.1400     0.0000     0.0000 </r>
       <r>   -19.1200     0.0000     0.0000 </r>
       <r>   -19.1000     0.0000     0.0000 </r>
       <r>   -19.0800     0.0000     0.0000 </r>
       <r>   -19.0600     0.0000     0.0000 </r>
       <r>   -19.0400     0.0000     0.0000 </r>
       <r>   -19.0200     0.0000     0.0000 </r>
       <r>   -19.0000     0.0000     0.0000 </r>
       <r>   -18.9800     0.0000     0.0000 </r>
       <r>   -18.9600     0.0000     0.0000 </r>
       <r>   -18.9400     0.0000     0.0000 </r>
       <r>   -18.9200     0.0000     0.0000 </r>
       <r>   -18.9000     0.0000     0.0000 </r>
       <r>   -18.8800     0.0000     0.0000 </r>
       <r>   -18.8600     0.0000     0.0000 </r>
       <r>   -18.8400     0.0000     0.0000 </r>
       <r>   -18.8200     0.0000     0.0000 </r>
       <r>   -18.8000     0.0000     0.0000 </r>
       <r>   -18.7800     0.0000     0.0000 </r>
       <r>   -18.7600     0.0000     0.0000 </r>
       <r>   -18.7400     0.0000     0.0000 </r>
       <r>   -18.7200     0.0000     0.0000 </r>
       <r>   -18.7000     0.0000     0.0000 </r>
       <r>   -18.6800     0.0000     0.0000 </r>
       <r>   -18.6600     0.0000     0.0000 </r>
       <r>   -18.6400     0.0000     0.0000 </r>
       <r>   -18.6200     0.0000     0.0000 </r>
       <r>   -18.6000     0.0000     0.0000 </r>
       <r>   -18.5800     0.0000     0.0000 </r>
       <r>   -18.5600     0.0000     0.0000 </r>
       <r>   -18.5400     0.0000     0.0000 </r>
       <r>   -18.5200     0.0000     0.0000 </r>
       <r>   -18.5000     0.0000     0.0000 </r>
       <r>   -18.4800     0.0000     0.0000 </r>
       <r>   -18.4600     0.0000     0.0000 </r>
       <r>   -18.4400     0.0000     0.0000 </r>
       <r>   -18.4200     0.0000     0.0000 </r>
       <r>   -18.4000     0.0000     0.0000 </r>
       <r>   -18.3800     0.0000     0.0000 </r>
       <r>   -18.3600     0.0000     0.0000 </r>
       <r>   -18.3400     0.0000     0.0000 </r>
       <r>   -18.3200     0.0000     0.0000 </r>
       <r>   -18.3000     0.0000     0.0000 </r>
       <r>   -18.2800     0.0000     0.0000 </r>
       <r>   -18.2600     0.0000     0.0000 </r>
       <r>   -18.2400     0.0000     0.0000 </r>
       <r>   -18.2200     0.0000     0.0000 </r>
       <r>   -18.2000     0.0000     0.0000 </r>
       <r>   -18.1800     0.0000     0.0000 </r>
       <r>   -18.1600     0.0000     0.0000 </r>
       <r>   -18.1400     0.0000     0.0000 </r>
       <r>   -18.1200     0.0000     0.0000 </r>
       <r>   -18.1000     0.0000     0.0000 </r>
       <r>   -18.0800     0.0000     0.0000 </r>
       <r>   -18.0600     0.0000     0.0000 </r>
       <r>   -18.0400     0.0000     0.0000 </r>
       <r>   -18.0200     0.0000     0.0000 </r>
       <r>   -18.0000     0.0000     0.0000 </r>
       <r>   -17.9800     0.0000     0.0000 </r>
       <r>   -17.9600     0.0000     0.0000 </r>
       <r>   -17.9400     0.0000     0.0000 </r>
       <r>   -17.9200     0.0000     0.0000 </r>
       <r>   -17.9000     0.0000     0.0000 </r>
       <r>   -17.8800     0.0000     0.0000 </r>
       <r>   -17.8600     0.0000     0.0000 </r>
       <r>   -17.8400     0.0000     0.0000 </r>
       <r>   -17.8200     0.0000     0.0000 </r>
       <r>   -17.8000     0.0000     0.0000 </r>
       <r>   -17.7800     0.0000     0.0000 </r>
       <r>   -17.7600     0.0000     0.0000 </r>
       <r>   -17.7400     0.0000     0.0000 </r>
       <r>   -17.7200     0.0000     0.0000 </r>
       <r>   -17.7000     0.0000     0.0000 </r>
       <r>   -17.6800     0.0000     0.0000 </r>
       <r>   -17.6600     0.0000     0.0000 </r>
       <r>   -17.6400     0.0000     0.0000 </r>
       <r>   -17.6200     0.0000     0.0000 </r>
       <r>   -17.6000     0.0000     0.0000 </r>
       <r>   -17.5800     0.0000     0.0000 </r>
       <r>   -17.5600     0.0000     0.0000 </r>
       <r>   -17.5400     0.0000     0.0000 </r>
       <r>   -17.5200     0.0000     0.0000 </r>
       <r>   -17.5000     0.0000     0.0000 </r>
       <r>   -17.4800     0.0000     0.0000 </r>
       <r>   -17.4600     0.0000     0.0000 </r>
       <r>   -17.4400     0.0000     0.0000 </r>
       <r>   -17.4200     0.0000     0.0000 </r>
       <r>   -17.4000     0.0000     0.0000 </r>
       <r>   -17.3800     0.0000     0.0000 </r>
       <r>   -17.3600     0.0000     0.0000 </r>
       <r>   -17.3400     0.0000     0.0000 </r>
       <r>   -17.3200     0.0000     0.0000 </r>
       <r>   -17.3000     0.0000     0.0000 </r>
       <r>   -17.2800     0.0000     0.0000 </r>
       <r>   -17.2600     0.0000     0.0000 </r>
       <r>   -17.2400     0.0000     0.0000 </r>
       <r>   -17.2200     0.0000     0.0000 </r>
       <r>   -17.2000     0.0000     0.0000 </r>
       <r>   -17.1800     0.0000     0.0000 </r>
       <r>   -17.1600     0.0000     0.0000 </r>
       <r>   -17.1400     0.0000     0.0000 </r>
       <r>   -17.1200     0.0000     0.0000 </r>
       <r>   -17.1000     0.0000     0.0000 </r>
       <r>   -17.0800     0.0000     0.0000 </r>
       <r>   -17.0600     0.0000     0.0000 </r>
       <r>   -17.0400     0.0000     0.0000 </r>
       <r>   -17.0200     0.0000     0.0000 </r>
       <r>   -17.0000     0.0000     0.0000 </r>
       <r>   -16.9800     0.0000     0.0000 </r>
       <r>   -16.9600     0.0000     0.0000 </r>
       <r>   -16.9400     0.0000     0.0000 </r>
       <r>   -16.9200     0.0000     0.0000 </r>
       <r>   -16.9000     0.0000     0.0000 </r>
       <r>   -16.8800     0.0000     0.0000 </r>
       <r>   -16.8600     0.0000     0.0000 </r>
       <r>   -16.8400     0.0000     0.0000 </r>
       <r>   -16.8200     0.0000     0.0000 </r>
       <r>   -16.8000     0.0000     0.0000 </r>
       <r>   -16.7800     0.0000     0.0000 </r>
       <r>   -16.7600     0.0000     0.0000 </r>
       <r>   -16.7400     0.0000     0.0000 </r>
       <r>   -16.7200     0.0000     0.0000 </r>
       <r>   -16.7000     0.0000     0.0000 </r>
       <r>   -16.6800     0.0000     0.0000 </r>
       <r>   -16.6600     0.0000     0.0000 </r>
       <r>   -16.6400     0.0000     0.0000 </r>
       <r>   -16.6200     0.0000     0.0000 </r>
       <r>   -16.6000     0.0000     0.0000 </r>
       <r>   -16.5800     0.0000     0.0000 </r>
       <r>   -16.5600     0.0000     0.0000 </r>
       <r>   -16.5400     0.0000     0.0000 </r>
       <r>   -16.5200     0.0000     0.0000 </r>
       <r>   -16.5000     0.0000     0.0000 </r>
       <r>   -16.4800     0.0000     0.0000 </r>
       <r>   -16.4600     0.0000     0.0000 </r>
       <r>   -16.4400     0.0000     0.0000 </r>
       <r>   -16.4200     0.0000     0.0000 </r>
       <r>   -16.4000     0.0000     0.0000 </r>
       <r>   -16.3800     0.0000     0.0000 </r>
       <r>   -16.3600     0.0000     0.0000 </r>
       <r>   -16.3400     0.0000     0.0000 </r>
       <r>   -16.3200     0.0000     0.0000 </r>
       <r>   -16.3000     0.0000     0.0000 </r>
       <r>   -16.2800     0.0000     0.0000 </r>
       <r>   -16.2600     0.0000     0.0000 </r>
       <r>   -16.2400     0.0000     0.0000 </r>
       <r>   -16.2200     0.0000     0.0000 </r>
       <r>   -16.2000     0.0000     0.0000 </r>
       <r>   -16.1800     0.0000     0.0000 </r>
       <r>   -16.1600     0.0000     0.0000 </r>
       <r>   -16.1400     0.0000     0.0000 </r>
       <r>   -16.1200     0.0000     0.0000 </r>
       <r>   -16.1000     0.0000     0.0000 </r>
       <r>   -16.0800     0.0000     0.0000 </r>
       <r>   -16.0600     0.0000     0.0000 </r>
       <r>   -16.0400     0.0000     0.0000 </r>
       <r>   -16.0200     0.0000     0.0000 </r>
       <r>   -16.0000     0.0000     0.0000 </r>
       <r>   -15.9800     0.0000     0.0000 </r>
       <r>   -15.9600     0.0000     0.0000 </r>
       <r>   -15.9400     0.0000     0.0000 </r>
       <r>   -15.9200     0.0000     0.0000 </r>
       <r>   -15.9000     0.0000     0.0000 </r>
       <r>   -15.8800     0.0000     0.0000 </r>
       <r>   -15.8600     0.0000     0.0000 </r>
       <r>   -15.8400     0.0000     0.0000 </r>
       <r>   -15.8200     0.0000     0.0000 </r>
       <r>   -15.8000     0.0000     0.0000 </r>
       <r>   -15.7800     0.0000     0.0000 </r>
       <r>   -15.7600     0.0000     0.0000 </r>
       <r>   -15.7400     0.0000     0.0000 </r>
       <r>   -15.7200     0.0000     0.0000 </r>
       <r>   -15.7000     0.0000     0.0000 </r>
       <r>   -15.6800     0.0000     0.0000 </r>
       <r>   -15.6600     0.0000     0.0000 </r>
       <r>   -15.6400     0.0000     0.0000 </r>
       <r>   -15.6200     0.0000     0.0000 </r>
       <r>   -15.6000     0.0000     0.0000 </r>
       <r>   -15.5800     0.0000     0.0000 </r>
       <r>   -15.5600     0.0000     0.0000 </r>
       <r>   -15.5400     0.0000     0.0000 </r>
       <r>   -15.5200     0.0000     0.0000 </r>
       <r>   -15.5000     0.0000     0.0000 </r>
       <r>   -15.4800     0.0000     0.0000 </r>
       <r>   -15.4600     0.0000     0.0000 </r>
       <r>   -15.4400     0.0000     0.0000 </r>
       <r>   -15.4200     0.0000     0.0000 </r>
       <r>   -15.4000     0.0000     0.0000 </r>
       <r>   -15.3800     0.0000     0.0000 </r>
       <r>   -15.3600     0.0000     0.0000 </r>
       <r>   -15.3400     0.0000     0.0000 </r>
       <r>   -15.3200     0.0000     0.0000 </r>
       <r>   -15.3000     0.0000     0.0000 </r>
       <r>   -15.2800     0.0000     0.0000 </r>
       <r>   -15.2600     0.0000     0.0000 </r>
       <r>   -15.2400     0.0000     0.0000 </r>
       <r>   -15.2200     0.0000     0.0000 </r>
       <r>   -15.2000     0.0000     0.0000 </r>
       <r>   -15.1800     0.0000     0.0000 </r>
       <r>   -15.1600     0.0000     0.0000 </r>
       <r>   -15.1400     0.0000     0.0000 </r>
       <r>   -15.1200     0.0000     0.0000 </r>
       <r>   -15.1000     0.0000     0.0000 </r>
       <r>   -15.0800     0.0000     0.0000 </r>
       <r>   -15.0600     0.0000     0.0000 </r>
       <r>   -15.0400     0.0000     0.0000 </r>
       <r>   -15.0200     0.0000     0.0000 </r>
       <r>   -15.0000     0.0000     0.0000 </r>
       <r>   -14.9800     0.0000     0.0000 </r>
       <r>   -14.9600     0.0000     0.0000 </r>
       <r>   -14.9400     0.0000     0.0000 </r>
       <r>   -14.9200     0.0000     0.0000 </r>
       <r>   -14.9000     0.0000     0.0000 </r>
       <r>   -14.8800     0.0000     0.0000 </r>
       <r>   -14.8600     0.0000     0.0000 </r>
       <r>   -14.8400     0.0000     0.0000 </r>
       <r>   -14.8200     0.0000     0.0000 </r>
       <r>   -14.8000     0.0000     0.0000 </r>
       <r>   -14.7800     0.0000     0.0000 </r>
       <r>   -14.7600     0.0000     0.0000 </r>
       <r>   -14.7400     0.0000     0.0000 </r>
       <r>   -14.7200     0.0000     0.0000 </r>
       <r>   -14.7000     0.0000     0.0000 </r>
       <r>   -14.6800     0.0000     0.0000 </r>
       <r>   -14.6600     0.0000     0.0000 </r>
       <r>   -14.6400     0.0000     0.0000 </r>
       <r>   -14.6200     0.0000     0.0000 </r>
       <r>   -14.6000     0.0000     0.0000 </r>
       <r>   -14.5800     0.0000     0.0000 </r>
       <r>   -14.5600     0.0000     0.0000 </r>
       <r>   -14.5400     0.0000     0.0000 </r>
       <r>   -14.5200     0.0000     0.0000 </r>
       <r>   -14.5000     0.0000     0.0000 </r>
       <r>   -14.4800     0.0000     0.0000 </r>
       <r>   -14.4600     0.0000     0.0000 </r>
       <r>   -14.4400     0.0000     0.0000 </r>
       <r>   -14.4200     0.0000     0.0000 </r>
       <r>   -14.4000     0.0000     0.0000 </r>
       <r>   -14.3800     0.0000     0.0000 </r>
       <r>   -14.3600     0.0000     0.0000 </r>
       <r>   -14.3400     0.0000     0.0000 </r>
       <r>   -14.3200     0.0000     0.0000 </r>
       <r>   -14.3000     0.0000     0.0000 </r>
       <r>   -14.2800     0.0000     0.0000 </r>
       <r>   -14.2600     0.0000     0.0000 </r>
       <r>   -14.2400     0.0000     0.0000 </r>
       <r>   -14.2200     0.0000     0.0000 </r>
       <r>   -14.2000     0.0000     0.0000 </r>
       <r>   -14.1800     0.0000     0.0000 </r>
       <r>   -14.1600     0.0000     0.0000 </r>
       <r>   -14.1400     0.0000     0.0000 </r>
       <r>   -14.1200     0.0000     0.0000 </r>
       <r>   -14.1000     0.0000     0.0000 </r>
       <r>   -14.0800     0.0000     0.0000 </r>
       <r>   -14.0600     0.0000     0.0000 </r>
       <r>   -14.0400     0.0000     0.0000 </r>
       <r>   -14.0200     0.0000     0.0000 </r>
       <r>   -14.0000     0.0000     0.0000 </r>
       <r>   -13.9800     0.0000     0.0000 </r>
       <r>   -13.9600     0.0000     0.0000 </r>
       <r>   -13.9400     0.0000     0.0000 </r>
       <r>   -13.9200     0.0000     0.0000 </r>
       <r>   -13.9000     0.0000     0.0000 </r>
       <r>   -13.8800     0.0000     0.0000 </r>
       <r>   -13.8600     0.0000     0.0000 </r>
       <r>   -13.8400     0.0000     0.0000 </r>
       <r>   -13.8200     0.0000     0.0000 </r>
       <r>   -13.8000     0.0000     0.0000 </r>
       <r>   -13.7800     0.0000     0.0000 </r>
       <r>   -13.7600     0.0000     0.0000 </r>
       <r>   -13.7400     0.0000     0.0000 </r>
       <r>   -13.7200     0.0000     0.0000 </r>
       <r>   -13.7000     0.0000     0.0000 </r>
       <r>   -13.6800     0.0000     0.0000 </r>
       <r>   -13.6600     0.0000     0.0000 </r>
       <r>   -13.6400     0.0000     0.0000 </r>
       <r>   -13.6200     0.0000     0.0000 </r>
       <r>   -13.6000     0.0000     0.0000 </r>
       <r>   -13.5800     0.0000     0.0000 </r>
       <r>   -13.5600     0.0000     0.0000 </r>
       <r>   -13.5400     0.0000     0.0000 </r>
       <r>   -13.5200     0.0000     0.0000 </r>
       <r>   -13.5000     0.0000     0.0000 </r>
       <r>   -13.4800     0.0000     0.0000 </r>
       <r>   -13.4600     0.0000     0.0000 </r>
       <r>   -13.4400     0.0000     0.0000 </r>
       <r>   -13.4200     0.0000     0.0000 </r>
       <r>   -13.4000     0.0000     0.0000 </r>
       <r>   -13.3800     0.0000     0.0000 </r>
       <r>   -13.3600     0.0000     0.0000 </r>
       <r>   -13.3400     0.0000     0.0000 </r>
       <r>   -13.3200     0.0000     0.0000 </r>
       <r>   -13.3000     0.0000     0.0000 </r>
       <r>   -13.2800     0.0000     0.0000 </r>
       <r>   -13.2600     0.0000     0.0000 </r>
       <r>   -13.2400     0.0000     0.0000 </r>
       <r>   -13.2200     0.0000     0.0000 </r>
       <r>   -13.2000     0.0000     0.0000 </r>
       <r>   -13.1800     0.0000     0.0000 </r>
       <r>   -13.1600     0.0000     0.0000 </r>
       <r>   -13.1400     0.0000     0.0000 </r>
       <r>   -13.1200     0.0000     0.0000 </r>
       <r>   -13.1000     0.0000     0.0000 </r>
       <r>   -13.0800     0.0000     0.0000 </r>
       <r>   -13.0600     0.0000     0.0000 </r>
       <r>   -13.0400     0.0000     0.0000 </r>
       <r>   -13.0200     0.0000     0.0000 </r>
       <r>   -13.0000     0.0000     0.0000 </r>
       <r>   -12.9800     0.0000     0.0000 </r>
       <r>   -12.9600     0.0000     0.0000 </r>
       <r>   -12.9400     0.0000     0.0000 </r>
       <r>   -12.9200     0.0000     0.0000 </r>
       <r>   -12.9000     0.0000     0.0000 </r>
       <r>   -12.8800     0.0000     0.0000 </r>
       <r>   -12.8600     0.0000     0.0000 </r>
       <r>   -12.8400     0.0000     0.0000 </r>
       <r>   -12.8200     0.0000     0.0000 </r>
       <r>   -12.8000     0.0000     0.0000 </r>
       <r>   -12.7800     0.0000     0.0000 </r>
       <r>   -12.7600     0.0000     0.0000 </r>
       <r>   -12.7400     0.0000     0.0000 </r>
       <r>   -12.7200     0.0000     0.0000 </r>
       <r>   -12.7000     0.0000     0.0000 </r>
       <r>   -12.6800     0.0000     0.0000 </r>
       <r>   -12.6600     0.0000     0.0000 </r>
       <r>   -12.6400     0.0000     0.0000 </r>
       <r>   -12.6200     0.0000     0.0000 </r>
       <r>   -12.6000     0.0000     0.0000 </r>
       <r>   -12.5800     0.0000     0.0000 </r>
       <r>   -12.5600     0.0000     0.0000 </r>
       <r>   -12.5400     0.0000     0.0000 </r>
       <r>   -12.5200     0.0000     0.0000 </r>
       <r>   -12.5000     0.0000     0.0000 </r>
       <r>   -12.4800     0.0000     0.0000 </r>
       <r>   -12.4600     0.0000     0.0000 </r>
       <r>   -12.4400     0.0000     0.0000 </r>
       <r>   -12.4200     0.0000     0.0000 </r>
       <r>   -12.4000     0.0000     0.0000 </r>
       <r>   -12.3800     0.0000     0.0000 </r>
       <r>   -12.3600     0.0000     0.0000 </r>
       <r>   -12.3400     0.0000     0.0000 </r>
       <r>   -12.3200     0.0000     0.0000 </r>
       <r>   -12.3000     0.0000     0.0000 </r>
       <r>   -12.2800     0.0000     0.0000 </r>
       <r>   -12.2600     0.0000     0.0000 </r>
       <r>   -12.2400     0.0000     0.0000 </r>
       <r>   -12.2200     0.0000     0.0000 </r>
       <r>   -12.2000     0.0000     0.0000 </r>
       <r>   -12.1800     0.0000     0.0000 </r>
       <r>   -12.1600     0.0000     0.0000 </r>
       <r>   -12.1400     0.0000     0.0000 </r>
       <r>   -12.1200     0.0000     0.0000 </r>
       <r>   -12.1000     0.0000     0.0000 </r>
       <r>   -12.0800     0.0000     0.0000 </r>
       <r>   -12.0600     0.0000     0.0000 </r>
       <r>   -12.0400     0.0000     0.0000 </r>
       <r>   -12.0200     0.0000     0.0000 </r>
       <r>   -12.0000     0.0000     0.0000 </r>
       <r>   -11.9800     0.0000     0.0000 </r>
       <r>   -11.9600     0.0000     0.0000 </r>
       <r>   -11.9400     0.0000     0.0000 </r>
       <r>   -11.9200     0.0000     0.0000 </r>
       <r>   -11.9000     0.0000     0.0000 </r>
       <r>   -11.8800     0.0000     0.0000 </r>
       <r>   -11.8600     0.0000     0.0000 </r>
       <r>   -11.8400     0.0000     0.0000 </r>
       <r>   -11.8200     0.0000     0.0000 </r>
       <r>   -11.8000     0.0000     0.0000 </r>
       <r>   -11.7800     0.0000     0.0000 </r>
       <r>   -11.7600     0.0000     0.0000 </r>
       <r>   -11.7400     0.0000     0.0000 </r>
       <r>   -11.7200     0.0000     0.0000 </r>
       <r>   -11.7000     0.0000     0.0000 </r>
       <r>   -11.6800     0.0000     0.0000 </r>
       <r>   -11.6600     0.0000     0.0000 </r>
       <r>   -11.6400     0.0000     0.0000 </r>
       <r>   -11.6200     0.0000     0.0000 </r>
       <r>   -11.6000     0.0000     0.0000 </r>
       <r>   -11.5800     0.0000     0.0000 </r>
       <r>   -11.5600     0.0000     0.0000 </r>
       <r>   -11.5400     0.0000     0.0000 </r>
       <r>   -11.5200     0.0000     0.0000 </r>
       <r>   -11.5000     0.0000     0.0000 </r>
       <r>   -11.4800     0.0000     0.0000 </r>
       <r>   -11.4600     0.0000     0.0000 </r>
       <r>   -11.4400     0.0000     0.0000 </r>
       <r>   -11.4200     0.0000     0.0000 </r>
       <r>   -11.4000     0.0000     0.0000 </r>
       <r>   -11.3800     0.0000     0.0000 </r>
       <r>   -11.3600     0.0000     0.0000 </r>
       <r>   -11.3400     0.0000     0.0000 </r>
       <r>   -11.3200     0.0000     0.0000 </r>
       <r>   -11.3000     0.0000     0.0000 </r>
       <r>   -11.2800     0.0000     0.0000 </r>
       <r>   -11.2600     0.0000     0.0000 </r>
       <r>   -11.2400     0.0000     0.0000 </r>
       <r>   -11.2200     0.0000     0.0000 </r>
       <r>   -11.2000     0.0000     0.0000 </r>
       <r>   -11.1800     0.0000     0.0000 </r>
       <r>   -11.1600     0.0000     0.0000 </r>
       <r>   -11.1400     0.0000     0.0000 </r>
       <r>   -11.1200     0.0000     0.0000 </r>
       <r>   -11.1000     0.0000     0.0000 </r>
       <r>   -11.0800     0.0000     0.0000 </r>
       <r>   -11.0600     0.0000     0.0000 </r>
       <r>   -11.0400     0.0000     0.0000 </r>
       <r>   -11.0200     0.0000     0.0000 </r>
       <r>   -11.0000     0.0000     0.0000 </r>
       <r>   -10.9800     0.0000     0.0000 </r>
       <r>   -10.9600     0.0000     0.0000 </r>
       <r>   -10.9400     0.0000     0.0000 </r>
       <r>   -10.9200     0.0000     0.0000 </r>
       <r>   -10.9000     0.0000     0.0000 </r>
       <r>   -10.8800     0.0000     0.0000 </r>
       <r>   -10.8600     0.0000     0.0000 </r>
       <r>   -10.8400     0.0000     0.0000 </r>
       <r>   -10.8200     0.0000     0.0000 </r>
       <r>   -10.8000     0.0000     0.0000 </r>
       <r>   -10.7800     0.0000     0.0000 </r>
       <r>   -10.7600     0.0000     0.0000 </r>
       <r>   -10.7400     0.0000     0.0000 </r>
       <r>   -10.7200     0.0000     0.0000 </r>
       <r>   -10.7000     0.0000     0.0000 </r>
       <r>   -10.6800     0.0000     0.0000 </r>
       <r>   -10.6600     0.0000     0.0000 </r>
       <r>   -10.6400     0.0000     0.0000 </r>
       <r>   -10.6200     0.0000     0.0000 </r>
       <r>   -10.6000     0.0000     0.0000 </r>
       <r>   -10.5800     0.0000     0.0000 </r>
       <r>   -10.5600     0.0000     0.0000 </r>
       <r>   -10.5400     0.0000     0.0000 </r>
       <r>   -10.5200     0.0000     0.0000 </r>
       <r>   -10.5000     0.0000     0.0000 </r>
       <r>   -10.4800     0.0000     0.0000 </r>
       <r>   -10.4600     0.0000     0.0000 </r>
       <r>   -10.4400     0.0000     0.0000 </r>
[...]
        <r>  0.0282  0.0842  0.0000 </r>
       </set>
       <set comment="band 8">
        <r>  0.0106  0.1041  0.0000 </r>
        <r>  0.0106  0.1041  0.0000 </r>
       </set>
      </set>
      <set comment="kpoint 39">
       <set comment="band 1">
        <r>  0.2157  0.0180  0.0000 </r>
        <r>  0.2157  0.0180  0.0000 </r>
       </set>
       <set comment="band 2">
        <r>  0.1252  0.0964  0.0000 </r>
        <r>  0.1252  0.0964  0.0000 </r>
       </set>
       <set comment="band 3">
        <r>  0.0316  0.1674  0.0000 </r>
        <r>  0.0316  0.1674  0.0000 </r>
       </set>
       <set comment="band 4">
        <r>  0.0041  0.2062  0.0000 </r>
        <r>  0.0041  0.2062  0.0000 </r>
       </set>
       <set comment="band 5">
        <r>  0.0734  0.0784  0.0000 </r>
        <r>  0.0734  0.0784  0.0000 </r>
       </set>
       <set comment="band 6">
        <r>  0.0358  0.0868  0.0000 </r>
        <r>  0.0358  0.0868  0.0000 </r>
       </set>
       <set comment="band 7">
        <r>  0.0169  0.1183  0.0000 </r>
        <r>  0.0169  0.1183  0.0000 </r>
       </set>
       <set comment="band 8">
        <r>  0.0255  0.0773  0.0000 </r>
        <r>  0.0255  0.0773  0.0000 </r>
       </set>
      </set>
      <set comment="kpoint 40">
       <set comment="band 1">
        <r>  0.2240  0.0193  0.0000 </r>
        <r>  0.2240  0.0193  0.0000 </r>
       </set>
       <set comment="band 2">
        <r>  0.1190  0.0907  0.0000 </r>
        <r>  0.1190  0.0907  0.0000 </r>
       </set>
       <set comment="band 3">
        <r>  0.0387  0.1638  0.0000 </r>
        <r>  0.0387  0.1638  0.0000 </r>
       </set>
       <set comment="band 4">
        <r>  0.0009  0.2064  0.0000 </r>
        <r>  0.0009  0.2064  0.0000 </r>
       </set>
       <set comment="band 5">
        <r>  0.1006  0.0688  0.0000 </r>
        <r>  0.1006  0.0688  0.0000 </r>
       </set>
       <set comment="band 6">
        <r>  0.0125  0.0794  0.0000 </r>
        <r>  0.0125  0.0794  0.0000 </r>
       </set>
       <set comment="band 7">
        <r>  0.0192  0.1059  0.0000 </r>
        <r>  0.0192  0.1059  0.0000 </r>
       </set>
       <set comment="band 8">
        <r>  0.0163  0.0993  0.0000 </r>
        <r>  0.0164  0.0990  0.0000 </r>
       </set>
      </set>
      <set comment="kpoint 41">
       <set comment="band 1">
        <r>  0.2128  0.0154  0.0000 </r>
        <r>  0.2128  0.0154  0.0000 </r>
       </set>
       <set comment="band 2">
        <r>  0.1516  0.0994  0.0000 </r>
        <r>  0.1516  0.0994  0.0000 </r>
       </set>
       <set comment="band 3">
        <r>  0.0073  0.1814  0.0000 </r>
        <r>  0.0073  0.1814  0.0000 </r>
       </set>
       <set comment="band 4">
        <r>  0.0065  0.1973  0.0000 </r>
        <r>  0.0065  0.1973  0.0000 </r>
       </set>
       <set comment="band 5">
        <r>  0.0373  0.0894  0.0000 </r>
        <r>  0.0373  0.0894  0.0000 </r>
       </set>
       <set comment="band 6">
        <r>  0.0452  0.0390  0.0000 </r>
        <r>  0.0452  0.0390  0.0000 </r>
       </set>
       <set comment="band 7">
        <r>  0.0372  0.1256  0.0000 </r>
        <r>  0.0372  0.1256  0.0000 </r>
       </set>
       <set comment="band 8">
        <r>  0.0033  0.1571  0.0000 </r>
        <r>  0.0032  0.1571  0.0000 </r>
       </set>
      </set>
      <set comment="kpoint 42">
       <set comment="band 1">
        <r>  0.2121  0.0211  0.0000 </r>
        <r>  0.2121  0.0211  0.0000 </r>
       </set>
       <set comment="band 2">
        <r>  0.1572  0.0869  0.0000 </r>
        <r>  0.1572  0.0869  0.0000 </r>
       </set>
       <set comment="band 3">
        <r>  0.0188  0.1667  0.0000 </r>
        <r>  0.0188  0.1667  0.0000 </r>
       </set>
       <set comment="band 4">
        <r>  0.0034  0.1943  0.0000 </r>
        <r>  0.0034  0.1943  0.0000 </r>
       </set>
       <set comment="band 5">
        <r>  0.0397  0.0781  0.0000 </r>
        <r>  0.0397  0.0781  0.0000 </r>
       </set>
       <set comment="band 6">
        <r>  0.0273  0.0597  0.0000 </r>
        <r>  0.0273  0.0597  0.0000 </r>
       </set>
       <set comment="band 7">
        <r>  0.0531  0.1100  0.0000 </r>
        <r>  0.0531  0.1100  0.0000 </r>
       </set>
       <set comment="band 8">
        <r>  0.0119  0.1369  0.0000 </r>
        <r>  0.0119  0.1369  0.0000 </r>
       </set>
      </set>
      <set comment="kpoint 43">
       <set comment="band 1">
        <r>  0.2166  0.0248  0.0000 </r>
        <r>  0.2166  0.0248  0.0000 </r>
       </set>
       <set comment="band 2">
        <r>  0.1517  0.0797  0.0000 </r>
        <r>  0.1517  0.0797  0.0000 </r>
       </set>
       <set comment="band 3">
        <r>  0.0294  0.1562  0.0000 </r>
        <r>  0.0294  0.1562  0.0000 </r>
       </set>
       <set comment="band 4">
        <r>  0.0008  0.1944  0.0000 </r>
        <r>  0.0008  0.1944  0.0000 </r>
       </set>
       <set comment="band 5">
        <r>  0.0443  0.0658  0.0000 </r>
        <r>  0.0443  0.0658  0.0000 </r>
       </set>
       <set comment="band 6">
        <r>  0.0279  0.0886  0.0000 </r>
        <r>  0.0279  0.0886  0.0000 </r>
       </set>
       <set comment="band 7">
        <r>  0.0409  0.0914  0.0000 </r>
        <r>  0.0409  0.0914  0.0000 </r>
       </set>
       <set comment="band 8">
        <r>  0.0232  0.1239  0.0000 </r>
        <r>  0.0232  0.1237  0.0000 </r>
       </set>
      </set>
      <set comment="kpoint 44">
       <set comment="band 1">
        <r>  0.2229  0.0243  0.0000 </r>
        <r>  0.2229  0.0243  0.0000 </r>
       </set>
       <set comment="band 2">
        <r>  0.1451  0.0793  0.0000 </r>
        <r>  0.1451  0.0793  0.0000 </r>
       </set>
       <set comment="band 3">
        <r>  0.0300  0.1529  0.0000 </r>
        <r>  0.0300  0.1529  0.0000 </r>
       </set>
       <set comment="band 4">
        <r>  0.0015  0.1956  0.0000 </r>
        <r>  0.0015  0.1956  0.0000 </r>
       </set>
       <set comment="band 5">
        <r>  0.0467  0.0656  0.0000 </r>
        <r>  0.0467  0.0656  0.0000 </r>
       </set>
       <set comment="band 6">
        <r>  0.0374  0.0888  0.0000 </r>
        <r>  0.0374  0.0888  0.0000 </r>
       </set>
       <set comment="band 7">
        <r>  0.0142  0.0988  0.0000 </r>
        <r>  0.0141  0.0989  0.0000 </r>
       </set>
       <set comment="band 8">
        <r>  0.0304  0.1091  0.0000 </r>
        <r>  0.0295  0.1120  0.0000 </r>
       </set>
      </set>
      <set comment="kpoint 45">
       <set comment="band 1">
        <r>  0.2156  0.0232  0.0000 </r>
        <r>  0.2156  0.0232  0.0000 </r>
       </set>
       <set comment="band 2">
        <r>  0.1537  0.0820  0.0000 </r>
        <r>  0.1537  0.0820  0.0000 </r>
       </set>
       <set comment="band 3">
        <r>  0.0217  0.1557  0.0000 </r>
        <r>  0.0217  0.1557  0.0000 </r>
       </set>
       <set comment="band 4">
        <r>  0.0032  0.1985  0.0000 </r>
        <r>  0.0032  0.1985  0.0000 </r>
       </set>
       <set comment="band 5">
        <r>  0.0491  0.0717  0.0000 </r>
        <r>  0.0491  0.0717  0.0000 </r>
       </set>
       <set comment="band 6">
        <r>  0.0317  0.0954  0.0000 </r>
        <r>  0.0317  0.0954  0.0000 </r>
       </set>
       <set comment="band 7">
        <r>  0.0369  0.0853  0.0000 </r>
        <r>  0.0369  0.0853  0.0000 </r>
       </set>
       <set comment="band 8">
        <r>  0.0149  0.1147  0.0000 </r>
        <r>  0.0148  0.1147  0.0000 </r>
       </set>
      </set>
      <set comment="kpoint 46">
       <set comment="band 1">
        <r>  0.2136  0.0182  0.0000 </r>
        <r>  0.2136  0.0182  0.0000 </r>
       </set>
       <set comment="band 2">
        <r>  0.1515  0.0923  0.0000 </r>
        <r>  0.1515  0.0923  0.0000 </r>
       </set>
       <set comment="band 3">
        <r>  0.0128  0.1631  0.0000 </r>
        <r>  0.0128  0.1631  0.0000 </r>
       </set>
       <set comment="band 4">
        <r>  0.0047  0.2035  0.0000 </r>
        <r>  0.0047  0.2035  0.0000 </r>
       </set>
       <set comment="band 5">
        <r>  0.0556  0.0843  0.0000 </r>
        <r>  0.0556  0.0843  0.0000 </r>
       </set>
       <set comment="band 6">
        <r>  0.0240  0.1121  0.0000 </r>
        <r>  0.0240  0.1121  0.0000 </r>
       </set>
       <set comment="band 7">
        <r>  0.0464  0.0559  0.0000 </r>
        <r>  0.0464  0.0559  0.0000 </r>
       </set>
       <set comment="band 8">
        <r>  0.0105  0.1384  0.0000 </r>
        <r>  0.0107  0.1383  0.0000 </r>
       </set>
      </set>
      <set comment="kpoint 47">
       <set comment="band 1">
        <r>  0.2085  0.0258  0.0000 </r>
        <r>  0.2085  0.0258  0.0000 </r>
       </set>
       <set comment="band 2">
        <r>  0.1803  0.0744  0.0000 </r>
        <r>  0.1803  0.0744  0.0000 </r>
       </set>
       <set comment="band 3">
        <r>  0.0064  0.1801  0.0000 </r>
        <r>  0.0064  0.1801  0.0000 </r>
       </set>
       <set comment="band 4">
        <r>  0.0006  0.1910  0.0000 </r>
        <r>  0.0006  0.1910  0.0000 </r>
       </set>
       <set comment="band 5">
        <r>  0.0437  0.0713  0.0000 </r>
        <r>  0.0437  0.0713  0.0000 </r>
       </set>
       <set comment="band 6">
        <r>  0.0411  0.0401  0.0000 </r>
        <r>  0.0411  0.0401  0.0000 </r>
       </set>
       <set comment="band 7">
        <r>  0.0289  0.1253  0.0000 </r>
        <r>  0.0289  0.1253  0.0000 </r>
       </set>
       <set comment="band 8">
        <r>  0.0014  0.1574  0.0000 </r>
        <r>  0.0014  0.1574  0.0000 </r>
       </set>
      </set>
      <set comment="kpoint 48">
       <set comment="band 1">
        <r>  0.2093  0.0315  0.0000 </r>
        <r>  0.2093  0.0315  0.0000 </r>
       </set>
       <set comment="band 2">
        <r>  0.1869  0.0641  0.0000 </r>
        <r>  0.1869  0.0641  0.0000 </r>
       </set>
       <set comment="band 3">
        <r>  0.0076  0.1656  0.0000 </r>
        <r>  0.0076  0.1656  0.0000 </r>
       </set>
       <set comment="band 4">
        <r>  0.0009  0.1877  0.0000 </r>
        <r>  0.0009  0.1877  0.0000 </r>
       </set>
       <set comment="band 5">
        <r>  0.0435  0.0603  0.0000 </r>
        <r>  0.0435  0.0603  0.0000 </r>
       </set>
       <set comment="band 6">
        <r>  0.0313  0.0695  0.0000 </r>
        <r>  0.0313  0.0695  0.0000 </r>
       </set>
       <set comment="band 7">
        <r>  0.0352  0.1118  0.0000 </r>
        <r>  0.0352  0.1118  0.0000 </r>
       </set>
       <set comment="band 8">
        <r>  0.0124  0.1451  0.0000 </r>
        <r>  0.0131  0.1431  0.0000 </r>
       </set>
      </set>
      <set comment="kpoint 49">
       <set comment="band 1">
        <r>  0.2173  0.0322  0.0000 </r>
        <r>  0.2173  0.0322  0.0000 </r>
       </set>
       <set comment="band 2">
        <r>  0.1825  0.0612  0.0000 </r>
        <r>  0.1825  0.0612  0.0000 </r>
       </set>
       <set comment="band 3">
        <r>  0.0057  0.1577  0.0000 </r>
        <r>  0.0057  0.1577  0.0000 </r>
       </set>
       <set comment="band 4">
        <r>  0.0021  0.1886  0.0000 </r>
        <r>  0.0021  0.1886  0.0000 </r>
       </set>
       <set comment="band 5">
        <r>  0.0445  0.0583  0.0000 </r>
        <r>  0.0445  0.0583  0.0000 </r>
       </set>
       <set comment="band 6">
        <r>  0.0131  0.0812  0.0000 </r>
        <r>  0.0131  0.0812  0.0000 </r>
       </set>
       <set comment="band 7">
        <r>  0.0413  0.1099  0.0000 </r>
        <r>  0.0413  0.1099  0.0000 </r>
       </set>
       <set comment="band 8">
        <r>  0.0266  0.1131  0.0000 </r>
        <r>  0.0263  0.1139  0.0000 </r>
       </set>
      </set>
      <set comment="kpoint 50">
       <set comment="band 1">
        <r>  0.2170  0.0287  0.0000 </r>
        <r>  0.2170  0.0287  0.0000 </r>
       </set>
       <set comment="band 2">
        <r>  0.1788  0.0666  0.0000 </r>
        <r>  0.1788  0.0666  0.0000 </r>
       </set>
       <set comment="band 3">
        <r>  0.0056  0.1558  0.0000 </r>
        <r>  0.0056  0.1558  0.0000 </r>
       </set>
       <set comment="band 4">
        <r>  0.0029  0.1920  0.0000 </r>
        <r>  0.0029  0.1920  0.0000 </r>
       </set>
       <set comment="band 5">
        <r>  0.0449  0.0629  0.0000 </r>
        <r>  0.0449  0.0629  0.0000 </r>
       </set>
       <set comment="band 6">
        <r>  0.0123  0.1032  0.0000 </r>
        <r>  0.0123  0.1032  0.0000 </r>
       </set>
       <set comment="band 7">
        <r>  0.0419  0.0798  0.0000 </r>
        <r>  0.0419  0.0798  0.0000 </r>
       </set>
       <set comment="band 8">
        <r>  0.0176  0.0992  0.0000 </r>
        <r>  0.0175  0.0994  0.0000 </r>
       </set>
      </set>
      <set comment="kpoint 51">
       <set comment="band 1">
        <r>  0.2030  0.0388  0.0000 </r>
        <r>  0.2030  0.0388  0.0000 </r>
       </set>
       <set comment="band 2">
        <r>  0.1951  0.0547  0.0000 </r>
        <r>  0.1951  0.0547  0.0000 </r>
       </set>
       <set comment="band 3">
        <r>  0.0038  0.1818  0.0000 </r>
        <r>  0.0038  0.1818  0.0000 </r>
       </set>
       <set comment="band 4">
        <r>  0.0008  0.1857  0.0000 </r>
        <r>  0.0008  0.1857  0.0000 </r>
       </set>
       <set comment="band 5">
        <r>  0.0457  0.0575  0.0000 </r>
        <r>  0.0457  0.0575  0.0000 </r>
       </set>
       <set comment="band 6">
        <r>  0.0441  0.0471  0.0000 </r>
        <r>  0.0441  0.0471  0.0000 </r>
       </set>
       <set comment="band 7">
        <r>  0.0202  0.1248  0.0000 </r>
        <r>  0.0202  0.1247  0.0000 </r>
       </set>
       <set comment="band 8">
        <r>  0.0086  0.1968  0.0000 </r>
        <r>  0.0094  0.1957  0.0000 </r>
       </set>
      </set>
      <set comment="kpoint 52">
       <set comment="band 1">
        <r>  0.2097  0.0407  0.0000 </r>
        <r>  0.2097  0.0407  0.0000 </r>
       </set>
       <set comment="band 2">
        <r>  0.1954  0.0505  0.0000 </r>
        <r>  0.1954  0.0505  0.0000 </r>
       </set>
       <set comment="band 3">
        <r>  0.0011  0.1663  0.0000 </r>
        <r>  0.0011  0.1663  0.0000 </r>
       </set>
       <set comment="band 4">
        <r>  0.0023  0.1850  0.0000 </r>
        <r>  0.0023  0.1850  0.0000 </r>
       </set>
       <set comment="band 5">
        <r>  0.0450  0.0539  0.0000 </r>
        <r>  0.0450  0.0539  0.0000 </r>
       </set>
       <set comment="band 6">
        <r>  0.0327  0.0735  0.0000 </r>
        <r>  0.0327  0.0735  0.0000 </r>
       </set>
       <set comment="band 7">
        <r>  0.0210  0.1222  0.0000 </r>
        <r>  0.0210  0.1222  0.0000 </r>
       </set>
       <set comment="band 8">
        <r>  0.0267  0.1087  0.0000 </r>
        <r>  0.0267  0.1086  0.0000 </r>
       </set>
      </set>
      <set comment="kpoint 53">
       <set comment="band 1">
        <r>  0.2119  0.0269  0.0000 </r>
        <r>  0.2119  0.0269  0.0000 </r>
       </set>
       <set comment="band 2">
        <r>  0.1791  0.0717  0.0000 </r>
        <r>  0.1791  0.0717  0.0000 </r>
       </set>
       <set comment="band 3">
        <r>  0.0096  0.1617  0.0000 </r>
        <r>  0.0096  0.1617  0.0000 </r>
       </set>
       <set comment="band 4">
        <r>  0.0030  0.1836  0.0000 </r>
        <r>  0.0030  0.1836  0.0000 </r>
       </set>
       <set comment="band 5">
        <r>  0.0299  0.0948  0.0000 </r>
        <r>  0.0299  0.0948  0.0000 </r>
       </set>
       <set comment="band 6">
        <r>  0.0100  0.0624  0.0000 </r>
        <r>  0.0100  0.0624  0.0000 </r>
       </set>
       <set comment="band 7">
        <r>  0.0716  0.0937  0.0000 </r>
        <r>  0.0716  0.0937  0.0000 </r>
       </set>
       <set comment="band 8">
        <r>  0.0038  0.1376  0.0000 </r>
        <r>  0.0038  0.1376  0.0000 </r>
       </set>
      </set>
      <set comment="kpoint 54">
       <set comment="band 1">
        <r>  0.2161  0.0308  0.0000 </r>
        <r>  0.2161  0.0308  0.0000 </r>
       </set>
       <set comment="band 2">
        <r>  0.1812  0.0640  0.0000 </r>
        <r>  0.1812  0.0640  0.0000 </r>
       </set>
       <set comment="band 3">
        <r>  0.0110  0.1572  0.0000 </r>
        <r>  0.0110  0.1572  0.0000 </r>
       </set>
       <set comment="band 4">
        <r>  0.0014  0.1791  0.0000 </r>
        <r>  0.0014  0.1791  0.0000 </r>
       </set>
       <set comment="band 5">
        <r>  0.0147  0.0813  0.0000 </r>
        <r>  0.0147  0.0813  0.0000 </r>
       </set>
       <set comment="band 6">
        <r>  0.0439  0.0861  0.0000 </r>
        <r>  0.0439  0.0861  0.0000 </r>
       </set>
       <set comment="band 7">
        <r>  0.0410  0.0874  0.0000 </r>
        <r>  0.0410  0.0874  0.0000 </r>
       </set>
       <set comment="band 8">
        <r>  0.0252  0.1041  0.0000 </r>
        <r>  0.0251  0.1043  0.0000 </r>
       </set>
      </set>
      <set comment="kpoint 55">
       <set comment="band 1">
        <r>  0.2090  0.0380  0.0000 </r>
        <r>  0.2090  0.0380  0.0000 </r>
       </set>
       <set comment="band 2">
        <r>  0.2000  0.0526  0.0000 </r>
        <r>  0.2000  0.0526  0.0000 </r>
       </set>
       <set comment="band 3">
        <r>  0.0038  0.1650  0.0000 </r>
        <r>  0.0038  0.1650  0.0000 </r>
       </set>
       <set comment="band 4">
        <r>  0.0000  0.1721  0.0000 </r>
        <r>  0.0000  0.1721  0.0000 </r>
       </set>
       <set comment="band 5">
        <r>  0.0314  0.0813  0.0000 </r>
        <r>  0.0314  0.0813  0.0000 </r>
       </set>
       <set comment="band 6">
        <r>  0.0283  0.0701  0.0000 </r>
        <r>  0.0283  0.0701  0.0000 </r>
       </set>
       <set comment="band 7">
        <r>  0.0407  0.1023  0.0000 </r>
        <r>  0.0407  0.1023  0.0000 </r>
       </set>
       <set comment="band 8">
        <r>  0.0259  0.1082  0.0000 </r>
        <r>  0.0259  0.1082  0.0000 </r>
       </set>
      </set>
      <set comment="kpoint 56">
       <set comment="band 1">
        <r>  0.2136  0.0379  0.0000 </r>
        <r>  0.2136  0.0379  0.0000 </r>
       </set>
       <set comment="band 2">
        <r>  0.1992  0.0514  0.0000 </r>
        <r>  0.1992  0.0514  0.0000 </r>
       </set>
       <set comment="band 3">
        <r>  0.0003  0.1611  0.0000 </r>
        <r>  0.0003  0.1611  0.0000 </r>
       </set>
       <set comment="band 4">
        <r>  0.0015  0.1715  0.0000 </r>
        <r>  0.0015  0.1715  0.0000 </r>
       </set>
       <set comment="band 5">
        <r>  0.0256  0.0786  0.0000 </r>
        <r>  0.0256  0.0786  0.0000 </r>
       </set>
       <set comment="band 6">
        <r>  0.0011  0.0832  0.0000 </r>
        <r>  0.0011  0.0832  0.0000 </r>
       </set>
       <set comment="band 7">
        <r>  0.0453  0.0912  0.0000 </r>
        <r>  0.0453  0.0912  0.0000 </r>
       </set>
       <set comment="band 8">
        <r>  0.0548  0.1101  0.0000 </r>
        <r>  0.0548  0.1101  0.0000 </r>
       </set>
      </set>
     </set>
    </set>
   </array>
  </projected>
 </calculation>
 <structure name="finalpos" >
  <crystal>
   <varray name="basis" >
    <v>       2.71308725       2.71308725       0.00000000 </v>
    <v>       0.00000000       2.71308725       2.71308725 </v>
    <v>       2.71308725       0.00000000       2.71308725 </v>
   </varray>
   <i name="volume">     39.94121528 </i>
   <varray name="rec_basis" >
    <v>       0.18429190       0.18429190      -0.18429190 </v>
    <v>      -0.18429190       0.18429190       0.18429190 </v>
    <v>       0.18429190      -0.18429190       0.18429190 </v>
   </varray>
  </crystal>
  <varray name="positions" >
   <v>       0.00000000       0.00000000       0.00000000 </v>
   <v>       0.25000000       0.25000000       0.25000000 </v>
  </varray>
 </structure>
</modeling>
